# vtk DataFile Version 4.0
SiWiRVisFile
ASCII
DATASET STRUCTURED_POINTS
DIMENSIONS 70 80 1
ORIGIN 0 0 0
SPACING 1 1 1
POINT_DATA 5600
SCALARS flags unsigned_int 1
LOOKUP_TABLE default
0
0
0
0
0
0
0
0
0
0
0
0
0
0
0
0
0
0
0
0
0
0
0
0
0
0
0
0
0
0
0
0
0
0
0
0
0
0
0
0
0
0
0
0
0
0
0
0
0
0
0
0
0
0
0
0
0
0
0
0
0
0
0
0
0
0
0
0
0
0
0
0
0
0
0
0
0
0
0
0
0
0
0
0
0
0
0
0
0
0
0
0
0
0
0
0
0
0
0
0
0
0
0
0
0
0
0
0
0
0
0
0
0
0
0
0
0
0
0
0
0
0
0
0
0
0
0
0
0
0
0
0
0
0
0
0
0
0
0
0
0
0
0
0
0
0
0
0
0
0
0
0
0
0
0
0
0
0
0
0
0
0
0
0
0
0
0
0
0
0
0
0
0
0
0
0
0
0
0
0
0
0
0
0
0
0
0
0
0
0
0
0
0
0
0
0
0
0
0
0
0
0
0
0
0
0
0
0
0
0
0
0
0
0
0
0
0
0
0
0
0
0
0
0
0
0
0
0
0
0
0
0
0
0
0
0
0
0
0
0
0
0
0
0
0
0
0
0
0
0
0
0
0
0
0
0
0
0
0
0
0
0
0
0
0
0
0
0
0
0
0
0
0
0
0
0
0
0
0
0
0
0
0
0
0
0
0
0
0
0
0
0
0
0
0
0
0
0
0
0
0
0
0
0
0
0
0
0
0
0
0
0
0
0
0
0
0
0
0
0
0
0
0
0
0
0
0
0
0
0
0
0
0
0
0
0
0
0
0
0
0
0
0
0
0
0
0
0
0
0
0
0
0
0
0
0
0
0
0
0
0
0
0
0
0
0
0
0
0
0
0
0
0
0
0
0
0
0
0
0
0
0
0
0
0
0
0
0
0
0
0
0
0
0
0
0
0
0
0
0
0
0
0
0
0
0
0
0
0
0
0
0
0
0
0
0
0
0
0
0
0
0
0
0
0
0
0
0
0
0
0
0
0
0
0
0
0
0
0
0
0
0
0
0
0
0
0
0
0
0
0
0
0
0
0
0
0
0
0
0
0
0
0
0
0
0
0
0
0
0
0
0
0
0
0
0
0
0
0
0
0
0
0
0
0
0
0
0
0
0
0
0
0
0
0
0
0
0
0
0
0
0
0
0
0
0
0
0
0
0
0
0
0
0
0
0
0
0
0
0
0
0
0
0
0
0
0
0
0
0
0
0
0
0
0
0
0
0
0
0
0
0
0
0
0
0
0
0
0
0
0
0
0
0
0
0
0
0
0
0
0
0
0
0
0
0
0
0
0
0
0
0
0
0
0
0
0
0
0
0
0
0
0
0
0
0
0
0
0
0
0
0
0
0
0
0
0
0
0
0
0
0
0
0
0
0
0
0
0
0
0
0
0
0
0
0
0
0
0
0
0
0
0
0
0
0
0
0
0
0
0
0
0
0
0
0
0
0
0
0
0
0
0
0
0
0
0
0
0
0
0
0
0
0
0
0
0
0
0
0
0
0
0
0
0
0
0
0
0
0
0
0
0
0
0
0
0
0
0
0
0
0
0
0
0
0
0
0
0
0
0
0
0
0
0
0
0
0
0
0
0
0
0
0
0
0
0
0
0
0
0
0
0
0
0
0
0
0
0
0
0
0
0
0
0
0
0
0
0
0
0
0
0
0
0
0
0
0
0
0
0
0
0
0
0
0
0
0
0
0
0
0
0
0
0
0
0
0
0
0
0
0
0
0
0
0
0
0
0
0
0
0
0
0
0
0
0
0
0
0
0
0
0
0
0
0
0
0
0
0
0
0
0
0
0
0
0
0
0
0
0
0
0
0
0
0
0
0
0
0
0
0
0
0
0
0
0
0
0
0
0
0
0
0
0
0
0
0
0
0
0
0
0
0
0
0
0
0
0
0
0
0
0
0
0
0
0
0
0
0
0
0
0
0
0
0
0
0
0
0
0
0
0
0
0
0
0
0
0
0
0
0
0
0
0
0
0
0
0
0
0
0
0
0
0
0
0
0
0
0
0
0
0
0
0
0
0
0
0
0
0
0
0
0
0
0
0
0
0
0
0
0
0
0
0
0
0
0
0
0
0
0
0
0
0
0
0
0
0
0
0
0
0
0
0
0
0
0
0
0
0
0
0
0
0
0
0
0
0
0
0
0
0
0
0
0
0
0
0
0
0
0
0
0
0
0
0
0
0
0
0
0
0
0
0
0
0
0
0
0
0
0
0
0
0
0
0
0
0
0
0
0
0
0
0
0
0
0
0
0
0
0
0
0
0
0
0
0
0
0
0
0
0
0
0
0
0
0
0
0
0
0
0
0
0
0
0
0
0
0
0
0
0
0
0
0
0
0
0
0
0
0
0
0
0
0
0
0
0
0
0
0
0
0
0
0
0
0
0
0
0
0
0
0
0
0
0
0
0
0
0
0
0
0
0
0
0
0
0
0
0
0
0
0
0
0
0
0
0
0
0
0
0
0
0
0
0
0
0
0
0
0
0
0
0
0
0
0
0
0
0
0
0
0
0
0
0
0
0
0
0
0
0
0
0
0
0
0
0
0
0
0
0
0
0
0
0
0
0
0
0
0
0
0
0
0
0
0
0
0
0
0
0
0
0
0
0
0
0
0
0
0
0
0
0
0
0
0
0
0
0
0
0
0
0
0
0
0
0
0
0
0
0
0
0
0
0
0
0
0
0
0
0
0
0
0
0
0
0
0
0
0
0
0
0
0
0
0
0
0
0
0
0
0
0
0
0
0
0
0
0
0
0
0
0
0
0
0
0
0
0
0
0
0
0
0
0
0
0
0
0
0
0
0
0
0
0
0
0
0
0
0
0
0
0
0
0
0
0
0
0
0
0
0
0
0
0
0
0
0
0
0
0
0
0
0
0
0
0
0
0
0
0
0
0
0
0
0
0
0
0
0
0
0
0
0
0
0
0
0
0
0
0
0
0
0
0
0
0
0
0
0
0
0
0
0
0
0
0
0
0
0
0
0
0
0
0
0
0
0
0
0
0
0
0
0
0
0
0
0
0
0
0
0
0
0
0
0
0
0
0
0
0
0
0
0
0
0
0
0
0
0
0
0
0
0
0
0
0
0
0
0
0
0
0
0
0
0
0
0
0
0
0
0
0
0
0
0
0
0
0
0
0
0
0
0
0
0
0
0
0
0
0
0
0
0
0
0
0
0
0
0
0
0
0
0
0
0
0
0
0
0
0
0
0
0
0
0
0
0
0
0
0
0
0
0
0
0
0
0
0
0
0
0
0
0
0
0
0
0
0
0
0
0
0
0
0
0
0
0
0
0
0
0
0
0
0
0
0
0
0
0
0
0
0
0
0
0
0
0
0
0
0
0
0
0
0
0
0
0
0
0
0
0
0
0
0
0
0
0
0
0
0
0
0
0
0
0
0
0
0
0
0
0
0
0
0
0
0
0
0
0
0
0
0
0
0
0
0
0
0
0
0
0
0
0
0
0
0
0
0
0
0
0
0
0
0
0
0
0
0
0
0
0
0
0
0
0
0
0
0
0
0
0
0
0
0
0
0
0
0
0
0
0
0
0
0
0
0
0
0
0
0
0
0
0
0
0
0
0
0
0
0
0
0
0
0
0
0
0
0
0
0
0
0
0
0
0
0
0
0
0
0
0
0
0
0
0
0
0
0
0
0
0
0
0
0
0
0
0
0
0
0
0
0
0
0
0
0
0
0
0
0
0
0
0
0
0
0
0
0
0
0
0
0
0
0
0
0
0
0
0
0
0
0
0
0
0
0
0
0
0
0
0
0
0
0
0
0
0
0
0
0
0
0
0
0
0
0
0
0
0
0
0
0
0
0
0
0
0
0
0
0
0
0
0
0
0
0
0
0
0
0
0
0
0
0
0
0
0
0
0
0
0
0
0
0
0
0
0
0
0
0
0
0
0
0
0
0
0
0
0
0
0
0
0
0
0
0
0
0
0
0
0
0
0
0
0
0
0
0
0
0
0
0
0
0
0
0
0
0
0
0
0
0
0
0
0
0
0
0
0
0
0
0
0
0
0
0
0
0
0
0
0
0
0
0
0
0
0
0
0
0
0
0
0
0
0
0
0
0
0
0
0
0
0
0
0
0
0
0
0
0
0
0
0
0
0
0
0
0
0
0
0
0
0
0
0
0
0
0
0
0
0
0
0
0
0
0
0
0
0
0
0
0
0
0
0
0
0
0
0
0
0
0
0
0
0
0
0
0
0
0
0
0
0
0
0
0
0
0
0
0
0
0
0
0
0
0
0
0
0
0
0
0
0
0
0
0
0
0
0
0
0
0
0
0
0
0
0
0
0
0
0
0
0
0
0
0
0
0
0
0
0
0
0
0
0
0
0
0
0
0
0
0
0
0
0
0
0
0
0
0
0
0
0
0
0
0
0
0
0
0
0
0
0
0
0
0
0
0
0
0
0
0
0
0
0
0
0
0
0
0
0
0
0
0
0
0
0
0
0
0
0
0
0
0
0
0
0
0
0
0
0
0
0
0
0
0
0
0
0
0
0
0
0
0
0
0
0
0
0
0
0
0
0
0
0
0
0
0
0
0
0
0
0
0
0
0
0
0
0
0
0
0
0
0
0
0
0
0
0
0
0
0
0
0
0
0
0
0
0
0
0
0
0
0
0
0
0
0
0
0
0
0
0
0
0
0
0
0
0
0
0
0
0
0
0
0
0
0
0
0
0
0
0
0
0
0
0
0
0
0
0
0
0
0
0
0
0
0
0
0
0
0
0
0
0
0
0
0
0
0
0
0
0
0
0
0
0
0
0
0
0
0
0
0
0
0
0
0
0
0
0
0
0
0
0
0
0
0
0
0
0
0
0
0
0
0
0
0
0
0
0
0
0
0
0
0
0
0
0
0
0
0
0
0
0
0
0
0
0
0
0
0
0
0
0
0
0
0
0
0
0
0
0
0
0
0
0
0
0
0
0
0
0
0
0
0
0
0
0
0
0
0
0
0
0
0
0
0
0
0
0
0
0
0
0
0
0
0
0
0
0
0
0
0
0
0
0
0
0
0
0
0
0
0
0
0
0
0
0
0
0
0
0
0
0
0
0
0
0
0
0
0
0
0
0
0
0
0
0
0
0
0
0
0
0
0
0
0
0
0
0
0
0
0
0
0
0
0
0
0
0
0
0
0
0
0
0
0
0
0
0
0
0
0
0
0
0
0
0
0
0
0
0
0
0
0
0
0
0
0
0
0
0
0
0
0
0
0
0
0
0
0
0
0
0
0
0
0
0
0
0
0
0
0
0
0
0
0
0
0
0
0
0
0
0
0
0
0
0
0
0
0
0
0
0
0
0
0
0
0
0
0
0
0
0
0
0
0
0
0
0
0
0
0
0
0
0
0
0
0
0
0
0
0
0
0
0
0
0
0
0
0
0
0
0
0
0
0
0
0
0
0
0
0
0
0
0
0
0
0
0
0
0
0
0
0
0
0
0
0
0
0
0
0
0
0
0
0
0
0
0
0
0
0
0
0
0
0
0
0
0
0
0
0
0
0
0
0
0
0
0
0
0
0
0
0
0
0
0
0
0
0
0
0
0
0
0
0
0
0
0
0
0
0
0
0
0
0
0
0
0
0
0
0
0
0
0
0
0
0
0
0
0
0
0
0
0
0
0
0
0
0
0
0
0
0
0
0
0
0
0
0
0
0
0
0
0
0
0
0
0
0
0
0
0
0
0
0
0
0
0
0
0
0
0
0
0
0
0
0
0
0
0
0
0
0
0
0
0
0
0
0
0
0
0
0
0
0
0
0
0
0
0
0
0
0
0
0
0
0
0
0
0
0
0
0
0
0
0
0
0
0
0
0
0
0
0
0
0
0
0
0
0
0
0
0
0
0
0
0
0
0
0
0
0
0
0
0
0
0
0
0
0
0
0
0
0
0
0
0
0
0
0
0
0
0
0
0
0
0
0
0
0
0
0
0
0
0
0
0
0
0
0
0
0
0
0
0
0
0
0
0
0
0
0
0
0
0
0
0
0
0
0
0
0
0
0
0
0
0
0
0
0
0
0
0
0
0
0
0
0
0
0
0
0
0
0
0
0
0
0
0
0
0
0
0
0
0
0
0
0
0
0
0
0
0
0
0
0
0
0
0
0
0
0
0
0
0
0
0
0
0
0
0
0
0
0
0
0
0
0
0
0
0
0
0
0
0
0
0
0
0
0
0
0
0
0
0
0
0
0
0
0
0
0
0
0
0
0
0
0
0
0
0
0
0
0
0
0
0
0
0
0
0
0
0
0
0
0
0
0
0
0
0
0
0
0
0
0
0
0
0
0
0
0
0
0
0
0
0
0
0
0
0
0
0
0
0
0
0
0
0
0
0
0
0
0
0
0
0
0
0
0
0
0
0
0
0
0
0
0
0
0
0
0
0
0
0
0
0
0
0
0
0
0
0
0
0
0
0
0
0
0
0
0
0
0
0
0
0
0
0
0
0
0
0
0
0
0
0
0
0
0
0
0
0
0
0
0
0
0
0
0
0
0
0
0
0
0
0
0
0
0
0
0
0
0
0
0
0
0
0
0
0
0
0
0
0
0
0
0
0
0
0
0
0
0
0
0
0
0
0
0
0
0
0
0
0
0
0
0
0
0
0
0
0
0
0
0
0
0
0
0
0
0
0
0
0
0
0
0
0
0
0
0
0
0
0
0
0
0
0
0
0
0
0
0
0
0
0
0
0
0
0
0
0
0
0
0
0
0
0
0
0
0
0
0
0
0
0
0
0
0
0
0
0
0
0
0
0
0
0
0
0
0
0
0
0
0
0
0
0
0
0
0
0
0
0
0
0
0
0
0
0
0
0
0
0
0
0
0
0
0
0
0
0
0
0
0
0
0
0
0
0
0
0
0
0
0
0
0
0
0
0
0
0
0
0
0
0
0
0
0
0
0
0
0
0
0
0
0
0
0
0
0
0
0
0
0
0
0
0
0
0
0
0
0
0
0
0
0
0
0
0
0
0
0
0
0
0
0
0
0
0
0
0
0
0
0
0
0
0
0
0
0
0
0
0
0
0
0
0
0
0
0
0
0
0
0
0
0
0
0
0
0
0
0
0
0
0
0
0
0
0
0
0
0
0
0
0
0
0
0
0
0
0
0
0
0
0
0
0
0
0
0
0
0
0
0
0
0
0
0
0
0
0
0
0
0
0
0
0
0
0
0
0
0
0
0
0
0
0
0
0
0
0
0
0
0
0
0
0
0
0
0
0
0
0
0
0
0
0
0
0
0
0
0
0
0
0
0
0
0
0
0
0
0
0
0
0
0
0
0
0
0
0
0
0
0
0
0
0
0
0
0
0
0
0
0
0
0
0
0
0
0
0
0
0
0
0
0
0
0
0
0
0
0
0
0
0
0
0
0
0
0
0
0
0
0
0
0
0
0
0
0
0
0
0
0
0
0
0
0
0
0
0
0
0
0
0
0
0
0
0
0
0
0
0
0
0
0
0
0
0
0
0
0
0
0
0
0
0
0
0
0
0
0
0
0
0
0
0
0
0
0
0
0
0
0
0
0
0
0
0
0
0
0
0
0
0
0
0
0
0
0
0
0
0
0
0
0
0
0
0
0
0
0
0
0
0
0
0
0
0
0
0
0
0
0
0
0
0
0
0
0
0
0
0
0
0
0
0
0
0
0
0
0
0
0
0
0
0
0
0
0
0
0
0
0
0
0
0
0
0
0
0
0
0
0
0
0
0
0
0
0
0
0
0
0
0
0
0
0
0
0
0
0
0
0
0
0
0
0
0
0
0
0
0
0
0
0
0
0
0
0
0
0
0
0
0
0
0
0
0
0
0
0
0
0
0
0
0
0
0
0
0
0
0
0
0
0
0
0
0
0
0
0
0
0
0
0
0
0
0
0
0
0
0
0
0
0
0
0
0
0
0
0
0
0
0
0
0
0
0
0
0
0
0
0
0
0
0
0
0
0
0
0
0
0
0
0
0
0
0
0
0
0
0
0
0
0
0
0
0
0
0
0
0
0
0
0
0
0
0
0
0
0
0
0
0
0
0
0
0
0
0
0
0
0
0
0
0
0
0
0
0
0
0
0
0
0
0
0
0
0
0
0
0
0
0
0
0
0
0
0
0
0
0
0
0
0
0
0
0
0
0
0
0
0
0
0
0
0
0
0
0
0
0
0
0
0
0
0
0
0
0
0
0
0
0
0
0
0
0
0
0
0
0
0
0
0
0
0
0
0
0
0
0
0
0
0
0
0
0
0
0
0
0
0
0
0
0
0
0
0
0
0
0
0
0
0
0
0
0
0
0
0
0
0
0
0
0
0
0
0
0
0
0
0
0
0
0
0
0
0
0
0
0
0
0
0
0
0
0
0
0
0
0
0
0
0
0
0
0
0
0
0
0
0
0
0
0
0
0
0
0
0
0
0
0
0
0
0
0
0
0
0
0
0
0
0
0
0
0
0
0
0
0
0
0
0
0
0
0
0
0
0
0
0
0
0
0
0
0
0
0
0
0
0
0
0
0
0
0
0
0
0
0
0
0
0
0
0
0
0
0
0
0
0
0
0
0
0
0
0
0
0
0
0
0
0
0
0
0
0
0
0
0
0
0
0
0
0
0
0
0
0
0
0
0
0
0
0
0
0
0
0
0
0
0
0
0
0
0
0
0
0
0
0
0
0
0
0
0
0
0
0
0
0
0
0
0
0
0
0
0
0
0
0
0
0
0
0
0
0
0
0
0
0
0
0
0
0
0
0
0
0
0
0
0
0
0
0
0
0
0
0
0
0
0
0
0
0
0
0
0
0
0
0
0
0
0
0
0
0
0
0
0
0
0
0
0
0
0
0
0
0
0
0
0
0
0
0
0
0
0
0
0
0
0
0
0
0
0
0
0
0
0
0
0
0
0
0
0
0
0
0
0
0
0
0
0
0
0
0
0
0
0
0
0
0
0
0
0
0
0
0
0
0
0
0
0
0
0
0
0
0
0
0
0
0
0
0
0
0
0
0
0
0
0
0
0
0
0
0
0
0
0
0
0
0
0
0
0
0
0
0
0
0
0
0
0
0
0
0
0
0
0
0
0
0
0
0
0
0
0
0
0
0
0
0
0
0
0
0
0
0
0
0
0
0
0
0
0
0
0
0
0
0
0
0
0
0
0
0
0
0
0
0
0
0
0
0
0
0
0
0
0
0
0
0
0
0
0
0
0
0
0
0
0
0
0
0
0
0
0
0
0
0
0
0
0
0
0
0
0
0
0
0
0
0
0
0
0
0
0
0
0
0
0
0
0
0
0
0
0
0
0
0
0
0
0
0
0
0
0
0
0
0
0
0
0
0
0
0
0
0
0
0
0
0
0
0
0
0
0
0
0
0
0
0
0
0
0
0
0
0
0
0
0
0
0
0
0
0
0
0
0
0
0
0
0
0
0
0
0
0
0
0
0
0
0
0
0
0
0
0
0
0
0
0
0
0
0
0
0
0
0
0
0
0
0
0
0
0
0
0
0
0
0
0
0
0
0
0
0
0
0
0
0
0
0
0
0
0
0
0
0
0
0
0
0
0
0
0
0
0
0
0
0
0
0
0
0
0
0
0
0
0
0
0
0
0
0
0
0
0
0
0
0
0
0
0
0
0
0
0
0
0
0
0
0
0
0
0
0
0
0
0
0
0
0
0
0
0
0
0
0
0
0
0
0
0
0
0
0
0
0
0
0
0
0
0
0
0
0
0
0
0
0
0
0
0
0
0
0
0
0
0
0
0
0
0
0
0
0
0
0
0
0
0
0
0
0
0
0
0
0
0
0
0
0
0
0
0
0
0
0
0
0
0
0
0
0
0
0
0
0
0
0
0
0
0
0
0
0
0
0
0
0
0
0
0
0
0
0
0
0
0
0
0
0
0
0
0
0
0
0
0
0
0
0
0
0
0
0
0
0
0
0
0
0
0
0
0
0
0
0
0
0
0
0
0
0
0
0
0
0
0
0
0
0
0
0
0
0
0
0
0
0
0
0
0
0
0
0
0
0
0
0
0
0
0
0
0
0
0
0
0
0
0
0
0
0
0
0
0
0
0
0
0
0
0
0
0
0
0
0
0
0
0
0
0
0
0
0
0
0
0
0
0
0
0
0
0
0
0
0
0
0
0
0
0
0
0
0
0
0
0
0
0
0
0
0
0
0
0
0
0
0
0
0
0
0
0
0
0
0
0
0
0
0
0
0
0
0
0
0
0
0
0
0
0
0
0
0
0
0
0
0
0
0
0
0
0
0
0
0
0
0
0
0
0
0
0
0
0
0
0
0
0
0
0
0
0
0
0
0
0
0
0
0
0
0
0
0
0
0
0
0
0
0
0
0
0
0
0
0
0
0
0
0
0
0
0
0
0
0
0
0
0
0
0
0
0
0
0
0
0
0
0
0
0
0
0
0
0
0
0
0
0
0
0
0
0
0
0
0
0
0
0
0
0
0
0
0
0
0
0
0
0
0
0
0
0
0
0
0
0
0
0
0
0
0
0
0
0
0
0
0
0
0
0
0
0
0
0
0
0
0
0
0
0
0
0
0
0
0
0
0
0
0
0
0
0
0
0
0
0
0
0
0
0
0
0
0
0
0
0
0
0
0
0
0
0
0
0
0
0
0
0
0
0
0
0
0
0
0
0
0
0
0
0
0
0
0
0
0
0
0
0
0
0
0
0
0
0
0
0
0
0
0
0
0
0
0
0
0
0
0
0
0
0
0
0
0
0
0
0
0
0
0
0
0
0
0
0
0
0
0
0
0
0
0
0
0
0
0
0
0
0
0
0
0
0
0
0
0
0
0
0
0
0
0
0
0
0
0
0
0
0
0
0
0
0
0
0
0
0
0
0
0
0
0
0
0
0
0
0
0
0
0
0
0
0
0
0
0
0
0
0
0
0
0
0
0
0
0
0
0
0
0
0
0
0
0
0
0
0
0
0
0
0
0
0
0
0
0
0
0
0
0
0
0
0
0
0
0
0
0
0
0
0
0
0
0
0
0
0
0
0
0
0
0
0
0
0
0
0
0
0
0
0
0
0
0
0
0
0
0
0
0
0
0
0
0
0
0
0
0
0
0
0
0
0
0
0
0
0
0
0
0
0
0
0
0
0
0
0
0
0
0
0
0
0
0
0
0
0
0
0
0
0
0
0
0
0
0
0
0
0
0
0
0
0
0
0
0
0
0
0
0
0
0
0
0
0
0
0
0
0
0
0
0
0
0
0
0
0
0
0
0
0
0
0
0
0
0
0
0
0
0
0
0
0
0
0
0
0
0
0
0
0
0
0
0
0
0
0
0
0
0
0
0
0
0
0
0
0
0
0
0
0
0
0
0
0
0
0
0
0
0
0
0
0
0
0
0
0
0
0
0
0
0
0
0
0
0
0
0
0
0
0
0
0
0
0
0
0
0
0
0
0
0
0
0
0
0
0
0
0
0
0
0
0
0
0
0
0
0
0
0
0
0
0
0
0
0
0
0
0
0
0
0
0
0
0
0
0
0
0
0
0
0
0
0
0
0
0
0
0
0
0
0
0
0
0
0
0
0
0
0
0
0
0
0
0
0
0
0
0
0
0
0
0
0
0
0
0
0
0
0
0
0
0
0
0
0
0
0
0
0
0
0
0
0
0
0
0
0
0
0
0
0
0
0
0
0
0
0
0
0
0
0
0
0
0
0
0
0
0
0
0
0
0
0
0
0
0
0
0
0
0
0
0
0
0
0
0
0
0
0
0
0
0
0
0
0
0
0
0
0
0
0
0
0
0
0
0
0
0
0
0
0
0
0
0
0
0
0
0
0
0
0
0
0
0
0
0
0
0
0
0
0
0
0
0
0
0
0
0
0
0
0
0
0
0
0
0
0
0
0
0
0
0
0
0
0
0
0
0
0
0
0
0
0
0
0
0
0
0
0
0
0
0
0
0
0
0
0
0
0
0
0
0
0
0
0
0
0
0
0
0
0
0
0
0
0
0
0
0
0
0
0
0
0
0
0
0
0
0
0
0
0
0
0
0
0
0
0
0
0
0
0
0
0
0
0
0
0
0
0
0
0
0
0
0
0
0
0
0
0
0
0
0
0
0
0
0
0
0
0
0
0
0
0
0
0
0
0
0
0
0
0
0
0
0
0
0
0
0
0
0
0
0
0
0
0
0
0
0
0
0
0
0
0
0
0
0
0
0
0
0
0
0
0
0
0
0
0
0
0
0
0
0
0
0
0
0
0
0
0
0
0
0
0
0
0
0
0
0
0
0
0
0
0
0
0
0
0
0
0
0
0
0
0
0
0
0
0
0
0
0
0
0
0
0
0
0
0
0
0
0
0
0
0
0
0
0
0
0
0
0
0
0
0
0
0
0
0
0
0
0
0
0
0
0
0
0
0
0
0
0
0
0
0
0
0
0
0
0
0
0
0
0
0
0
0
0
0
0
0
0
0
0
0
0
0
0
0
0
0
0
0
0
0
0
0
0
0
0
0
0
0
0
0
0
0
0
0
0
0
0
0
0
0
0
0
0
0
0
0
0
0
0
0
0
0
0
0
0
0
0
0
0
0
0
0
0
0
0
0
0
0
0
0
0
0
0
0
0
0
0
0
0
0
0
0
0
0
0
0
0
0
0
0
0
0
0
0
0
0
0
0
0
0
0
0
0
0
0
0
0
0
0
0
0
0
0
0
0
0
0
0
0
0
0
0
0
0
0
0
0
0
0
0
0
0
0
0
0
0
0
0
0
0
0
0
0
0
0
0
0
0
0
0
0
0
0
0
0
0
0
0
0
0
0
0
0
0
0
0
0
0
0
0
0
0
0
0
0
0
0
0
0
0
0
0
0
0
0
0
0
0
0
0
0
0
0
0
0
0
0
0
0
0
0
0
0
0
0
0
0
0
0
0
0
0
0
0
0
0
0
0
0
0
0
0
0
0
0
0
0
0
0
0
0
0
0
0
0
0
0
0
0
0
0
0
SCALARS density double 1
LOOKUP_TABLE default
1.16557
1.12784
1.12952
1.16289
1.15358
1.14805
1.15877
1.16247
1.16036
1.16247
1.16769
1.16918
1.17025
1.17388
1.1773
1.1794
1.18243
1.18632
1.18974
1.19316
1.19734
1.20173
1.20609
1.21085
1.2161
1.22154
1.22728
1.23351
1.24015
1.24717
1.25468
1.26274
1.27133
1.28051
1.29035
1.30089
1.31218
1.3243
1.33733
1.35134
1.36641
1.38268
1.40022
1.4192
1.43973
1.462
1.48617
1.51247
1.54113
1.5724
1.60664
1.64409
1.68537
1.73059
1.7808
1.83585
1.89756
1.96518
2.04176
2.1256
2.2215
2.32634
2.4473
2.57924
2.7324
2.89896
3.09259
3.30238
3.54554
3.80755
4.10844
4.43266
4.79772
5.18871
5.62979
6.11154
6.57477
7.22597
7.89385
1
1
1.16133
1.14241
1.15865
1.15911
1.14495
1.16032
1.16033
1.15754
1.162
1.16576
1.16628
1.16815
1.17173
1.1743
1.17634
1.17955
1.18299
1.18603
1.1894
1.19336
1.19734
1.20144
1.20598
1.21085
1.2159
1.22131
1.22715
1.23334
1.2399
1.24693
1.25445
1.26246
1.27102
1.28019
1.28999
1.30049
1.31175
1.32383
1.33681
1.35076
1.36579
1.38197
1.39945
1.41833
1.43878
1.46091
1.48499
1.51111
1.53965
1.57067
1.60476
1.6419
1.68293
1.72778
1.77758
1.83225
1.89325
1.96054
2.03591
2.11961
2.21349
2.3186
2.4363
2.56926
2.71733
2.88608
3.07216
3.28566
3.51767
3.78579
4.06964
4.40034
4.74141
5.14164
5.51264
6.01842
6.36815
6.87836
7.34159
1
1
1.1526
1.16061
1.16263
1.14211
1.15321
1.16658
1.15496
1.15789
1.16543
1.16529
1.16504
1.16915
1.17253
1.17369
1.17624
1.18009
1.18298
1.18574
1.18952
1.19349
1.19718
1.20133
1.20601
1.21078
1.21576
1.22124
1.22708
1.23319
1.23975
1.24681
1.2543
1.26227
1.27083
1.27998
1.28976
1.30023
1.31148
1.32353
1.33648
1.3504
1.36539
1.38153
1.39897
1.4178
1.43819
1.46026
1.48425
1.5103
1.53872
1.56965
1.60359
1.6406
1.68145
1.72609
1.77569
1.83002
1.89083
1.95757
2.0328
2.11559
2.20949
2.31309
2.4311
2.56165
2.71044
2.87536
3.06268
3.27049
3.50345
3.76299
4.04808
4.36424
4.69736
5.09021
5.43308
5.88789
6.32098
6.60802
7.06219
1
1
1.15724
1.15536
1.15251
1.15547
1.16582
1.15599
1.15498
1.1665
1.16344
1.16236
1.16798
1.17061
1.17079
1.17373
1.17759
1.17983
1.18235
1.18619
1.1898
1.1931
1.19708
1.20153
1.20589
1.21054
1.21573
1.22118
1.22686
1.23302
1.23963
1.2466
1.25405
1.26205
1.27058
1.27968
1.28944
1.29989
1.31109
1.3231
1.33601
1.34988
1.36481
1.38089
1.39826
1.417
1.43731
1.45927
1.48315
1.50905
1.53733
1.56807
1.60181
1.63857
1.67915
1.72347
1.77269
1.82662
1.88685
1.9531
2.02746
2.10968
2.20222
2.30523
2.42108
2.55103
2.6965
2.86091
3.04274
3.25051
3.47493
3.73363
4.00418
4.32544
4.61993
5.0184
5.33729
5.71196
6.1267
6.44089
6.76698
1
1
1.16408
1.15782
1.15569
1.16268
1.15873
1.15214
1.16389
1.16546
1.15929
1.16566
1.16968
1.16868
1.17086
1.17519
1.17734
1.17922
1.18285
1.18651
1.18944
1.19304
1.19731
1.20144
1.20569
1.21055
1.21571
1.22101
1.22673
1.23294
1.23948
1.24642
1.25389
1.26187
1.27036
1.27945
1.28919
1.29962
1.31078
1.32277
1.33564
1.34947
1.36437
1.38041
1.39772
1.4164
1.43664
1.45853
1.48233
1.50813
1.5363
1.56692
1.60052
1.63711
1.6775
1.72161
1.77058
1.8242
1.8841
1.94993
2.02386
2.10543
2.19742
2.29943
2.41459
2.54293
2.68743
2.84944
3.0296
3.23318
3.45555
3.7088
3.96885
4.28955
4.57677
4.93595
5.30727
5.61809
5.99543
6.27308
6.52954
1
1
1.15715
1.15709
1.16063
1.15714
1.15561
1.16338
1.16524
1.158
1.16356
1.16981
1.16621
1.16828
1.17365
1.17496
1.17607
1.18006
1.18358
1.18589
1.18928
1.19353
1.19725
1.20111
1.20577
1.21063
1.2155
1.22086
1.22672
1.23281
1.23926
1.24627
1.25373
1.26163
1.27011
1.2792
1.2889
1.29928
1.31043
1.32238
1.3352
1.34899
1.36384
1.37981
1.39706
1.41567
1.43583
1.45761
1.4813
1.50698
1.53501
1.56545
1.59886
1.63524
1.67536
1.71917
1.76778
1.82102
1.8804
1.94572
2.01889
2.09982
2.19065
2.29179
2.40521
2.53247
2.674
2.83474
3.01055
3.21223
3.42534
3.6818
3.92293
4.23735
4.52859
4.84355
5.20345
5.53188
5.86995
6.1469
6.36915
1
1
1.15696
1.16108
1.16125
1.15756
1.16108
1.16355
1.15884
1.16106
1.16849
1.16574
1.16535
1.17187
1.17316
1.17331
1.17726
1.18091
1.18273
1.18578
1.18994
1.19343
1.19688
1.20128
1.20589
1.21039
1.21538
1.2209
1.2266
1.23261
1.23916
1.24615
1.25352
1.26143
1.26992
1.27897
1.28863
1.299
1.31012
1.32203
1.33482
1.34858
1.36338
1.3793
1.3965
1.41505
1.43514
1.45685
1.48045
1.50603
1.53395
1.56426
1.59752
1.63373
1.67366
1.71726
1.76559
1.81855
1.87755
1.94248
2.01512
2.09549
2.18559
2.28589
2.39816
2.52429
2.66412
2.82275
2.99587
3.19657
3.40129
3.65703
3.90039
4.18855
4.50536
4.80493
5.14204
5.4525
5.76572
6.0193
6.22736
1
1
1.16235
1.15928
1.15712
1.1607
1.16241
1.15864
1.16123
1.16732
1.16501
1.16324
1.17018
1.17215
1.17042
1.17474
1.17883
1.17976
1.1824
1.1868
1.18994
1.19286
1.19712
1.20156
1.20561
1.21024
1.2155
1.22082
1.22637
1.23253
1.23909
1.24594
1.25332
1.26127
1.2697
1.27869
1.28836
1.29872
1.30978
1.32165
1.33442
1.34812
1.36287
1.37874
1.39588
1.41436
1.43436
1.45599
1.47949
1.50494
1.53273
1.5629
1.59597
1.63198
1.67167
1.715
1.76299
1.81559
1.87411
1.93858
2.0105
2.09022
2.17927
2.27877
2.38931
2.51429
2.65171
2.8092
2.97616
3.17856
3.37574
3.62174
3.87325
4.14039
4.44544
4.7535
5.07998
5.39234
5.69166
5.93288
6.11466
1
1
1.16057
1.159
1.16029
1.1621
1.16049
1.16097
1.16502
1.164
1.1626
1.16796
1.17078
1.1686
1.17206
1.17687
1.17716
1.17929
1.18384
1.18674
1.18915
1.19325
1.19752
1.20117
1.20545
1.21047
1.21542
1.22056
1.22634
1.23251
1.23889
1.24577
1.25321
1.26108
1.26946
1.27848
1.28813
1.29842
1.30947
1.32133
1.33405
1.34771
1.36242
1.37824
1.39532
1.41374
1.43368
1.45523
1.47865
1.50401
1.53168
1.56172
1.59465
1.63051
1.66999
1.71312
1.76083
1.81317
1.8713
1.9354
2.0068
2.08602
2.1742
2.27307
2.38244
2.50634
2.64137
2.79942
2.96124
3.16144
3.36365
3.5943
3.85536
4.12168
4.41631
4.71365
5.02803
5.3278
5.61928
5.85284
6.02313
1
1
1.1588
1.16101
1.16223
1.15962
1.16016
1.16387
1.16336
1.16198
1.16668
1.16941
1.16714
1.16969
1.17507
1.17514
1.17618
1.18119
1.18399
1.18564
1.18961
1.1939
1.19706
1.20094
1.20581
1.21044
1.21511
1.22056
1.22639
1.2323
1.2387
1.2457
1.25305
1.26084
1.26927
1.27828
1.28785
1.29812
1.30917
1.32098
1.33365
1.34728
1.36195
1.37771
1.39473
1.41309
1.43296
1.45442
1.47774
1.503
1.53054
1.56044
1.59321
1.62888
1.66813
1.71103
1.75842
1.81045
1.86813
1.9318
2.00253
2.08125
2.16841
2.26646
2.37433
2.49794
2.62893
2.78739
2.94745
3.13907
3.34674
3.56906
3.82111
4.08939
4.38201
4.68143
4.99109
5.28702
5.56578
5.79164
5.95069
1
1
1.16085
1.16107
1.16023
1.16072
1.16296
1.16289
1.16225
1.16526
1.16749
1.16599
1.1681
1.17293
1.17327
1.17365
1.17854
1.1815
1.18241
1.18622
1.19054
1.19324
1.19673
1.20149
1.20581
1.21003
1.21518
1.22069
1.22615
1.23212
1.2387
1.24557
1.25282
1.26069
1.26911
1.27803
1.2876
1.29788
1.30887
1.32064
1.3333
1.34689
1.3615
1.37723
1.3942
1.41249
1.4323
1.45369
1.47693
1.50209
1.52953
1.55933
1.59194
1.62747
1.66653
1.70925
1.75637
1.80816
1.86548
1.92885
1.99899
2.07731
2.16374
2.26132
2.3673
2.49163
2.62025
2.77575
2.94034
3.12425
3.33397
3.55819
3.80689
4.06905
4.3545
4.64748
4.95201
5.24436
5.51906
5.7387
5.8899
1
1
1.16187
1.16033
1.16037
1.16257
1.16256
1.16148
1.16394
1.16619
1.1652
1.1667
1.17107
1.17159
1.17156
1.17601
1.17927
1.17963
1.18294
1.18752
1.1898
1.19276
1.19747
1.20156
1.20528
1.21013
1.21541
1.22044
1.22595
1.23218
1.23861
1.24532
1.25269
1.26058
1.26888
1.27778
1.28738
1.29762
1.30855
1.32031
1.33294
1.34648
1.36104
1.37673
1.39365
1.41188
1.43161
1.45294
1.47609
1.50115
1.52847
1.55815
1.59061
1.62598
1.66483
1.70734
1.75418
1.80569
1.86257
1.92564
1.99518
2.07299
2.15838
2.2561
2.35968
2.48348
2.61271
2.76229
2.92916
3.1105
3.31482
3.53795
3.78637
4.0505
4.33475
4.62686
4.92581
5.21386
5.48258
5.69818
5.84156
1
1
1.16057
1.1611
1.16209
1.16175
1.16151
1.16344
1.16504
1.16446
1.1658
1.16918
1.16981
1.16988
1.17384
1.17695
1.17717
1.18
1.18463
1.18667
1.18905
1.19374
1.19764
1.20085
1.20542
1.21051
1.2151
1.22019
1.2261
1.23212
1.23833
1.24523
1.25263
1.26036
1.26865
1.27763
1.28716
1.29733
1.30828
1.32002
1.33258
1.34609
1.36064
1.37627
1.39313
1.41132
1.431
1.45224
1.47532
1.50031
1.52752
1.55709
1.58943
1.62468
1.66334
1.70568
1.75228
1.80362
1.86013
1.92291
1.992
2.06969
2.15372
2.25184
2.35478
2.47582
2.60797
2.75439
2.92074
3.10331
3.30736
3.52754
3.77144
4.03199
4.31275
4.60297
4.90034
5.18576
5.45092
5.66293
5.80152
1
1
1.16081
1.16171
1.16186
1.16134
1.16265
1.16415
1.16383
1.16464
1.1675
1.1684
1.16857
1.17182
1.1748
1.17503
1.1774
1.18185
1.18386
1.1857
1.19019
1.19407
1.19676
1.201
1.20596
1.21016
1.2148
1.22043
1.22609
1.2318
1.23826
1.24523
1.25242
1.26013
1.26853
1.27744
1.28689
1.29708
1.30802
1.31969
1.33223
1.34572
1.36022
1.3758
1.39262
1.41075
1.43036
1.45154
1.47453
1.49944
1.52656
1.55602
1.5882
1.62332
1.6618
1.70397
1.75029
1.80142
1.85759
1.92009
1.98841
2.06634
2.14915
2.24627
2.35037
2.46801
2.60047
2.74634
2.91011
3.09089
3.29445
3.51618
3.76015
4.02084
4.29949
4.58743
4.88163
5.16506
5.42654
5.63578
5.76942
1
1
1.16188
1.16143
1.16126
1.16247
1.16336
1.16306
1.164
1.16632
1.1671
1.16736
1.17012
1.17269
1.17305
1.17514
1.17927
1.18118
1.18269
1.1869
1.19073
1.19299
1.19685
1.20175
1.20558
1.20975
1.21515
1.22048
1.2257
1.23175
1.23834
1.24501
1.25219
1.26008
1.26839
1.27717
1.28668
1.29688
1.30773
1.31938
1.33193
1.34537
1.35981
1.37537
1.39216
1.41022
1.42977
1.45091
1.47383
1.49865
1.52568
1.55506
1.58713
1.62212
1.66045
1.70251
1.74859
1.79953
1.85539
1.91795
1.98538
2.06332
2.14633
2.24142
2.34692
2.46365
2.59525
2.74137
2.90568
3.08546
3.28632
3.50582
3.74746
4.00696
4.28476
4.57182
4.86436
5.14607
5.40544
5.61243
5.74276
1
1
1.16172
1.16145
1.16197
1.16271
1.16274
1.16336
1.16512
1.16595
1.16631
1.16847
1.17079
1.17138
1.1732
1.17681
1.17871
1.18003
1.18386
1.18757
1.18958
1.19302
1.19779
1.20136
1.20505
1.2102
1.21527
1.22002
1.22567
1.23192
1.23812
1.24477
1.25218
1.25996
1.26812
1.27699
1.28652
1.29662
1.30745
1.31911
1.33161
1.345
1.35942
1.37495
1.39167
1.4097
1.4292
1.45026
1.47311
1.49787
1.52479
1.55408
1.58603
1.62092
1.65905
1.70097
1.74687
1.79767
1.85296
1.91568
1.98265
2.05956
2.14347
2.23696
2.34198
2.45855
2.58922
2.73391
2.89741
3.0781
3.2794
3.49935
3.74037
3.99881
4.27495
4.56092
4.85179
5.13215
5.38919
5.59446
5.72146
1
1
1.16135
1.16197
1.16244
1.16224
1.16285
1.16433
1.16495
1.16529
1.16721
1.1692
1.16983
1.17143
1.1746
1.17638
1.17764
1.18109
1.1846
1.18642
1.1895
1.19408
1.19744
1.20068
1.20558
1.21044
1.21472
1.21997
1.22595
1.2317
1.23783
1.24482
1.25211
1.25968
1.26796
1.27689
1.28628
1.29635
1.30724
1.31886
1.33128
1.34466
1.35908
1.37455
1.39122
1.40922
1.42867
1.44968
1.47246
1.49717
1.52401
1.55321
1.58505
1.61987
1.65787
1.69966
1.74531
1.79622
1.85102
1.91349
1.98091
2.05658
2.1409
2.23431
2.33885
2.45515
2.58624
2.73089
2.89296
3.07221
3.27196
3.49107
3.73147
3.98968
4.26507
4.5503
4.84015
5.11954
5.37514
5.57894
5.7038
1
1
1.16186
1.16203
1.1621
1.16254
1.1635
1.16408
1.16455
1.16605
1.16771
1.16842
1.16987
1.17253
1.17427
1.17552
1.17857
1.18178
1.18354
1.18632
1.1906
1.19378
1.19668
1.20125
1.20592
1.20982
1.21465
1.22036
1.22572
1.23137
1.23795
1.2448
1.25181
1.25954
1.26791
1.27666
1.28603
1.29618
1.307
1.31855
1.33099
1.34436
1.3587
1.37414
1.3908
1.40874
1.42813
1.4491
1.47182
1.49644
1.52321
1.55236
1.58407
1.61878
1.65666
1.69841
1.74367
1.79461
1.84935
1.911
1.97887
2.05396
2.13774
2.2309
2.33522
2.45071
2.58094
2.72594
2.88843
3.06816
3.26786
3.48658
3.72615
3.98374
4.25837
4.54296
4.83173
5.11031
5.36444
5.56712
5.6897
1
1
1.16215
1.16194
1.16217
1.16301
1.16348
1.1638
1.16508
1.1665
1.16717
1.16843
1.17077
1.17238
1.17358
1.17626
1.17919
1.18088
1.18341
1.18736
1.19037
1.19298
1.19723
1.2017
1.20526
1.20969
1.21515
1.22016
1.22531
1.23152
1.238
1.24447
1.25167
1.25956
1.26772
1.2764
1.2859
1.29601
1.30673
1.31829
1.33075
1.34406
1.35835
1.37378
1.39041
1.4083
1.42764
1.44858
1.47124
1.49581
1.5225
1.55159
1.58323
1.61786
1.65555
1.69738
1.74242
1.79302
1.84814
1.90919
1.977
2.05217
2.13583
2.22864
2.33307
2.44882
2.57845
2.72255
2.88401
3.06313
3.26232
3.48097
3.72022
3.97751
4.25163
4.53583
4.82395
5.10192
5.35514
5.55688
5.67803
1
1
1.16194
1.16214
1.16258
1.16288
1.16329
1.16429
1.16538
1.16605
1.16723
1.16917
1.17062
1.17182
1.17418
1.17678
1.17845
1.18078
1.18435
1.18717
1.18961
1.19352
1.19773
1.20103
1.20509
1.21026
1.21497
1.21969
1.22552
1.23164
1.23763
1.24434
1.25176
1.25936
1.26745
1.27633
1.28576
1.29573
1.3065
1.3181
1.33045
1.34373
1.35805
1.37343
1.38998
1.40787
1.42718
1.44804
1.47065
1.49519
1.5218
1.5508
1.58236
1.617
1.65444
1.69619
1.74134
1.79141
1.84663
1.90754
1.97502
2.04985
2.13347
2.22596
2.32971
2.44544
2.57533
2.71984
2.88141
3.06046
3.25928
3.47757
3.71645
3.97347
4.24711
4.53093
4.81842
5.09589
5.34815
5.54914
5.66875
1
1
1.162
1.16234
1.16261
1.16282
1.16358
1.16452
1.16514
1.16612
1.16777
1.1691
1.17022
1.17228
1.17462
1.17623
1.17836
1.18156
1.18421
1.18649
1.19007
1.19402
1.1971
1.20082
1.20569
1.21013
1.21445
1.2199
1.22572
1.23126
1.23747
1.24449
1.2516
1.25908
1.26739
1.27625
1.2855
1.29552
1.30635
1.31786
1.33016
1.34346
1.35776
1.37309
1.38962
1.40748
1.42675
1.44757
1.47012
1.49462
1.52119
1.55015
1.58155
1.61623
1.65362
1.69507
1.74042
1.79028
1.84533
1.90623
1.97377
2.04838
2.1319
2.22462
2.32822
2.44345
2.57266
2.71671
2.8779
3.05688
3.25555
3.47375
3.71236
3.96923
4.24256
4.52616
4.81325
5.09036
5.34204
5.54242
5.66108
1
1
1.16229
1.1623
1.1625
1.1631
1.16378
1.16429
1.16519
1.16656
1.1677
1.16878
1.17061
1.17265
1.17417
1.17615
1.179
1.18146
1.18364
1.18691
1.19054
1.19344
1.19689
1.20143
1.2056
1.20959
1.21468
1.22017
1.2253
1.23108
1.2377
1.24434
1.25128
1.25908
1.26736
1.27596
1.28531
1.29544
1.30612
1.31756
1.32996
1.34322
1.35742
1.37276
1.3893
1.40708
1.42629
1.44712
1.46963
1.49404
1.52055
1.54954
1.5808
1.61534
1.65286
1.69403
1.7393
1.78915
1.84407
1.90467
1.97214
2.04668
2.12979
2.22232
2.326
2.44153
2.57088
2.71499
2.87603
3.05483
3.25329
3.47137
3.70978
3.96648
4.23956
4.52295
4.80964
5.08645
5.3375
5.53739
5.65499
1
1
1.16229
1.16234
1.16268
1.16321
1.16368
1.16438
1.16549
1.16652
1.16751
1.16908
1.17088
1.17233
1.17413
1.17666
1.17895
1.18101
1.18398
1.18731
1.19006
1.19325
1.19745
1.20137
1.20507
1.20979
1.21498
1.21977
1.2251
1.23134
1.23759
1.24401
1.25129
1.25909
1.2671
1.27578
1.28525
1.29524
1.30587
1.31739
1.32975
1.34295
1.35715
1.37247
1.38896
1.40673
1.42591
1.44669
1.46917
1.49358
1.51997
1.54894
1.58024
1.61457
1.65213
1.69328
1.73842
1.78817
1.84317
1.90371
1.97101
2.04565
2.1288
2.2211
2.32436
2.43956
2.56862
2.71264
2.87359
3.05236
3.25069
3.46871
3.70697
3.96361
4.2365
4.51978
4.80623
5.08283
5.33351
5.533
5.64998
1
1
1.16223
1.16248
1.16282
1.16312
1.16371
1.16463
1.16548
1.16636
1.16775
1.1693
1.17063
1.17229
1.17455
1.17662
1.17857
1.18128
1.18432
1.1869
1.18989
1.19375
1.1974
1.20086
1.20527
1.21012
1.21458
1.21955
1.22542
1.23126
1.23721
1.24404
1.25138
1.2588
1.2669
1.2758
1.28509
1.29495
1.30573
1.31725
1.32947
1.34267
1.35693
1.37219
1.3886
1.40639
1.42557
1.44627
1.46868
1.49313
1.51946
1.54828
1.57966
1.61389
1.65133
1.69244
1.73758
1.78714
1.84201
1.90255
1.96968
2.0441
2.1272
2.2197
2.32307
2.43835
2.56738
2.71131
2.87214
3.05086
3.2491
3.46706
3.70522
3.96178
4.23453
4.51769
4.8039
5.08031
5.33058
5.52975
5.64601
1
1
1.16235
1.16252
1.16277
1.1632
1.16388
1.16461
1.1654
1.16656
1.1679
1.16913
1.17063
1.17261
1.17451
1.17635
1.1788
1.18156
1.184
1.18677
1.1903
1.19372
1.19698
1.20104
1.20557
1.20977
1.21437
1.21984
1.22536
1.2309
1.23725
1.24414
1.25111
1.25862
1.26693
1.27565
1.28484
1.29485
1.3056
1.317
1.32926
1.34248
1.35666
1.37191
1.38834
1.40606
1.4252
1.44594
1.46828
1.49266
1.51905
1.54777
1.57909
1.61334
1.65073
1.69173
1.73689
1.78647
1.84122
1.90175
1.96893
2.04331
2.12616
2.21842
2.32159
2.43677
2.56572
2.70965
2.87041
3.0491
3.24726
3.46521
3.70329
3.95983
4.23248
4.5156
4.80167
5.07795
5.32799
5.5269
5.64275
1
1
1.16245
1.16251
1.16279
1.16333
1.1639
1.16454
1.16553
1.16669
1.16778
1.16912
1.17088
1.17259
1.17429
1.17652
1.17903
1.1813
1.18388
1.18712
1.19029
1.19334
1.19712
1.20134
1.20525
1.20954
1.21468
1.21984
1.22497
1.23093
1.23743
1.24388
1.25087
1.25871
1.26685
1.27535
1.28473
1.29481
1.30537
1.31675
1.32912
1.34229
1.35637
1.37164
1.3881
1.40576
1.42483
1.44559
1.46792
1.49218
1.51858
1.5473
1.57853
1.6127
1.65013
1.69104
1.73607
1.78563
1.84034
1.90071
1.96779
2.04225
2.1252
2.21752
2.32069
2.43585
2.56473
2.70862
2.86935
3.04801
3.24614
3.46407
3.7021
3.95861
4.23118
4.51424
4.80016
5.07634
5.32611
5.52481
5.64016
1
1
1.16242
1.16257
1.1629
1.16332
1.16387
1.16466
1.16562
1.16659
1.16779
1.16931
1.17085
1.17244
1.17444
1.17669
1.17883
1.18123
1.18416
1.1871
1.18999
1.19347
1.19735
1.20105
1.20508
1.20982
1.21465
1.21949
1.22503
1.23108
1.23716
1.24369
1.25099
1.25861
1.26658
1.27531
1.28469
1.29456
1.30519
1.31667
1.32891
1.34203
1.3562
1.37142
1.38778
1.4055
1.42456
1.44521
1.46759
1.49184
1.51816
1.54685
1.57812
1.6122
1.64959
1.69054
1.73552
1.78502
1.83974
1.90015
1.9671
2.0414
2.12419
2.21644
2.31954
2.43469
2.56353
2.70741
2.86808
3.04675
3.24484
3.46277
3.70076
3.95728
4.22981
4.51285
4.7987
5.07481
5.32444
5.52296
5.63804
1
1
1.16243
1.16262
1.16292
1.1633
1.16393
1.16473
1.16557
1.1666
1.16793
1.16931
1.17074
1.17254
1.17458
1.17655
1.17875
1.18144
1.18416
1.18685
1.19008
1.19369
1.19714
1.20087
1.20531
1.20984
1.21432
1.21949
1.22522
1.23087
1.23692
1.2438
1.25097
1.25833
1.26648
1.27533
1.28451
1.29434
1.3051
1.31655
1.32867
1.34182
1.35603
1.3712
1.3875
1.40523
1.42431
1.44489
1.46722
1.49149
1.51777
1.54638
1.57765
1.61173
1.64901
1.68991
1.73489
1.78432
1.83893
1.89934
1.96636
2.04071
2.12351
2.21575
2.31882
2.43394
2.56276
2.70664
2.86729
3.04596
3.24404
3.46197
3.69995
3.95646
4.22895
4.51197
4.79772
5.07377
5.32322
5.52161
5.63635
1
1
1.1625
1.16262
1.16289
1.16337
1.16398
1.16468
1.16558
1.16671
1.16791
1.16922
1.17084
1.17264
1.17446
1.17651
1.17893
1.18142
1.18396
1.18695
1.19024
1.19348
1.19701
1.2011
1.20529
1.20954
1.21438
1.21966
1.22497
1.23068
1.23708
1.24374
1.25067
1.25832
1.26653
1.27509
1.28432
1.29435
1.30495
1.31628
1.32855
1.34171
1.35576
1.37097
1.38734
1.40496
1.424
1.44464
1.46692
1.49112
1.51745
1.54605
1.57723
1.61132
1.64862
1.68946
1.73441
1.78387
1.83845
1.89875
1.96566
2.03995
2.12269
2.21491
2.31796
2.43307
2.56185
2.70572
2.86636
3.04504
3.2431
3.46105
3.69901
3.95555
4.22801
4.51104
4.79676
5.07276
5.32213
5.5204
5.63497
1
1
1.16251
1.16262
1.16293
1.1634
1.16397
1.16469
1.16564
1.16671
1.16786
1.16928
1.1709
1.17256