# vtk DataFile Version 4.0
SiwiRVisFile
ASCII
DATASET STRUCTURED_POINTS
DIMENSIONS 5 5 1
ORIGIN 0 0 0
SPACING 1 1 1
POINT_DATA 25

SCALARS flags double 1
LOOKUP_TABLE default
1
1
1
1
1
1
1
1
1
1
1
1
1
1
1
1
1
1
1
1
1
1
1
1
1

SCALARS density double 1
LOOKUP_TABLE default
1.0255
0.957418
0.953115
0.957418
1.0255
0.957418
0.953115
1.03039
0.953115
0.957418
0.953115
1.03039
1
1.03039
0.953115
0.957418
0.953115
1.03039
0.953115
0.957418
1.0255
0.957418
0.953115
0.957418
1.0255

VECTORS velocity double
-0.0124311 -0.0124311 0
-0.0156982 -0.0290132 0
0 7.28023e-017 0
-0.0156982 0.0290132 0
-0.0124311 0.0124311 0
-0.0290132 -0.0156982 0
-0.0245956 -0.0245956 0
0.0294979 -6.73421e-018 0
-0.0245956 0.0245956 0
-0.0290132 0.0156982 0
5.09616e-017 -7.28023e-018 0
-6.73421e-018 0.0294979 0
6.93889e-018 -6.93889e-018 0
0 -0.0294979 0
2.18407e-017 -1.45605e-017 0
0.0290132 -0.0156982 0
0.0245956 -0.0245956 0
-0.0294979 2.02026e-017 0
0.0245956 0.0245956 0
0.0290132 0.0156982 0
0.0124311 -0.0124311 0
0.0156982 -0.0290132 0
-1.45605e-017 6.5522e-017 0
0.0156982 0.0290132 0
0.0124311 0.0124311 0
