# vtk DataFile Version 4.0
SiwiRVisFile
ASCII
DATASET STRUCTURED_POINTS
DIMENSIONS 5 5 1
ORIGIN 0 0 0
SPACING 1 1 1
POINT_DATA 25

SCALARS flags double 1
LOOKUP_TABLE default
1
1
1
1
1
1
1
1
1
1
1
1
1
1
1
1
1
1
1
1
1
1
1
1
1

SCALARS density double 1
LOOKUP_TABLE default
0.99221
1.03143
1.00152
0.962984
1.0027
0.991982
1.02897
0.999748
0.969009
1.00504
1.01868
0.966859
0.996545
1.03433
0.988003
1.01199
0.995598
0.997579
1.00371
0.993339
0.983994
1.04096
0.999782
0.963325
1.01972

VECTORS velocity double
-0.00164484 -0.00129228 0
0.00124131 -0.00354468 0
0.00354112 -0.0002423 0
0.000511039 0.00352039 0
-0.00214155 0.000945736 0
0.00352188 -0.000376618 0
-0.00261823 -0.00705928 0
-0.00374768 0.00171775 0
-0.00758526 0.00576502 0
0.00165963 -0.000663699 0
0.001986 -0.000149961 0
-0.00995275 0.0145102 0
-0.0216057 0.00369724 0
-0.0125619 -0.0138377 0
-0.000999315 -0.00439134 0
-0.0104426 0.0120958 0
-0.0130891 0.017943 0
-0.00411775 0.00272653 0
-0.0122823 -0.0176612 0
-0.00889455 -0.0177429 0
0.0243851 0.009707 0
0.0401386 -0.00164382 0
0.0473519 0.00173421 0
0.0475385 -0.000280409 0
0.02467 -0.0137062 0
