# vtk DataFile Version 4.0
SiwiRVisFile
ASCII
DATASET STRUCTURED_POINTS
DIMENSIONS 5 5 1
ORIGIN 0 0 0
SPACING 1 1 1
POINT_DATA 25

SCALARS flags double 1
LOOKUP_TABLE default
1
1
1
1
1
1
1
1
1
1
1
1
1
1
1
1
1
1
1
1
1
1
1
1
1

SCALARS density double 1
LOOKUP_TABLE default
0.977681
1.03736
1.00417
0.960554
1.00985
0.981874
1.03048
1.00411
0.964719
1.00598
1.02946
0.948279
0.99142
1.05265
0.983374
1.00828
0.987743
0.995036
1.01426
1.00089
0.972827
1.06456
1.00336
0.939787
1.0313

VECTORS velocity double
2.1502e-005 0.000732762 0
-0.00262296 -0.00260922 0
-0.00235262 0.00508421 0
-0.00687269 0.00637115 0
-0.00226254 0.000408972 0
0.00258759 0.00485317 0
-0.00653322 0.0028791 0
-0.017982 0.00529807 0
-0.0208865 -0.0119825 0
-0.00216397 -0.013958 0
0.00215217 -0.00125758 0
-0.0136877 0.0291948 0
-0.0196796 0.0140692 0
-0.0126776 -0.0189092 0
-0.00608084 -0.0133253 0
-0.00411878 0.0219917 0
-0.0122358 0.0316384 0
0.00867629 0.0125842 0
-0.0034566 -0.030904 0
0.0008686 -0.0307523 0
0.00868441 -0.0250688 0
0.0441915 -0.000369924 0
0.0531833 0.00477995 0
0.0688002 0.0085474 0
0.00987345 -0.0121701 0
