# vtk DataFile Version 4.0
SiwiRVisFile
ASCII
DATASET STRUCTURED_POINTS
DIMENSIONS 5 5 1
ORIGIN 0 0 0
SPACING 1 1 1
POINT_DATA 25

SCALARS flags double 1
LOOKUP_TABLE default
1
1
1
1
1
1
1
1
1
1
1
1
1
1
1
1
1
1
1
1
1
1
1
1
1

SCALARS density double 1
LOOKUP_TABLE default
0.98922
1.02864
0.997546
0.96911
1.00862
0.989408
1.0283
0.999831
0.968742
1.00365
1.02268
0.964043
0.995198
1.03836
0.982461
1.00903
0.992996
0.996768
1.00563
0.996776
0.98657
1.04535
1.00289
0.956331
1.02186

VECTORS velocity double
-0.00054899 0.00369642 0
-0.000292851 -0.00360113 0
0.00340304 0.000422027 0
0.00101471 0.0038414 0
0.000201277 -0.00392455 0
-0.000169129 0.00701346 0
-0.0030819 -0.00883021 0
-0.00741692 0.00210317 0
-0.00683546 0.00606135 0
-0.000597728 -0.00685889 0
0.000520697 -0.00534713 0
-0.0148645 0.014486 0
-0.0354537 0.00322611 0
-0.0158332 -0.0155279 0
-0.000340878 0.00160733 0
-0.0104093 0.00432675 0
-0.0143653 0.0153208 0
-0.004258 0.0041017 0
-0.0147521 -0.0144857 0
-0.00824754 -0.00934675 0
0.0205038 0.0158134 0
0.042742 0.00349717 0
0.0404892 0.00177704 0
0.0419793 -0.00421338 0
0.0217092 -0.0140744 0
