# vtk DataFile Version 4.0
SiwiRVisFile
ASCII
DATASET STRUCTURED_POINTS
DIMENSIONS 5 5 1
ORIGIN 0 0 0
SPACING 1 1 1
POINT_DATA 25

SCALARS flags double 1
LOOKUP_TABLE default
1
1
1
1
1
1
1
1
1
1
1
1
1
1
1
1
1
1
1
1
1
1
1
1
1

SCALARS density double 1
LOOKUP_TABLE default
-26473.8
-24144.9
3824.72
18242.4
55854.8
82661.8
-17198.8
-18166.5
16280
-105724
-28485.6
-24594.2
-6702.55
-17114.9
-9299.8
-31439.6
22681.6
6387.2
103355
72267.1
26057
-2548.96
-79085.1
47348
-63955.5

VECTORS velocity double
-0.271134 -0.461714 0
-1.27891 -0.794651 0
7.57736 10.0782 0
0.542367 -3.60022 0
0.164224 -0.615048 0
-0.811492 0.0448026 0
0.932775 -1.70766 0
-2.08791 1.30967 0
-1.61594 -0.552542 0
0.678869 0.0990975 0
-1.20306 0.479761 0
0.657466 0.04687 0
-0.918143 -6.64772 0
-0.736477 -4.22798 0
1.42449 -2.83861 0
-0.280428 -0.966211 0
0.379914 0.26134 0
5.47494 6.89306 0
0.1491 -0.237981 0
0.438707 -0.32651 0
0.0132686 0.736585 0
2.987 -0.170088 0
-0.955568 0.0336957 0
1.42588 -1.16458 0
0.545161 0.594958 0
