# vtk DataFile Version 4.0
SiwiRVisFile
ASCII
DATASET STRUCTURED_POINTS
DIMENSIONS 5 5 1
ORIGIN 0 0 0
SPACING 1 1 1
POINT_DATA 25

SCALARS flags double 1
LOOKUP_TABLE default
1
1
1
1
1
1
1
1
1
1
1
1
1
1
1
1
1
1
1
1
1
1
1
1
1

SCALARS density double 1
LOOKUP_TABLE default
-2054.1
1566.76
57.0324
-1318.34
-4073.08
3004.95
4246.13
-40983.5
27113.5
-42258.9
-2115.48
3388.22
963.317
-11482.6
60249.7
-2743.95
4015.94
26253
-21748
-4370.88
-2795.55
1646.55
3550.26
4070.57
-4156.38

VECTORS velocity double
2.19251 -5.05851 0
-3.96613 -5.66961 0
22.0283 -62.4464 0
-6.40052 -6.65008 0
0.450952 -0.380241 0
-0.0382269 3.44475 0
-1.11982 -0.783196 0
-0.570045 -0.456995 0
-0.180582 -0.642089 0
-0.223317 -1.25875 0
-3.51897 -0.400814 0
2.25816 1.12989 0
-9.64262 -0.597308 0
-2.04068 -3.4282 0
-0.312281 0.399918 0
-1.1105 1.70086 0
1.20472 1.17314 0
-0.897613 0.44473 0
0.506603 -0.34109 0
-8.89338 2.47647 0
-0.925061 1.03977 0
-0.889644 0.840826 0
0.474908 1.47066 0
-1.29327 -2.59532 0
3.95937 -0.407263 0
