# vtk DataFile Version 4.0
SiwiRVisFile
ASCII
DATASET STRUCTURED_POINTS
DIMENSIONS 5 5 1
ORIGIN 0 0 0
SPACING 1 1 1
POINT_DATA 25

SCALARS flags double 1
LOOKUP_TABLE default
1
1
1
1
1
1
1
1
1
1
1
1
1
1
1
1
1
1
1
1
1
1
1
1
1

SCALARS density double 1
LOOKUP_TABLE default
-50.9213
176.616
35.6573
169.014
12.2167
176.616
0.741463
120.254
132.5
-58.9925
35.6568
120.252
87.103
41.9841
3.83385
169.015
132.496
41.984
-34.9885
13.5799
12.2168
-58.9912
3.83395
13.5798
-2.93595

VECTORS velocity double
-1.72419 -1.7242 0
-0.135185 0.329127 0
-0.372866 -2.05767 0
0.190032 0.12785 0
0.475294 1 0
0.329129 -0.135184 0
33.2901 33.2947 0
-0.271734 0.306497 0
0.306838 0.0875316 0
1.07318 1 0
-2.0577 -0.37285 0
0.306496 -0.271745 0
0.0407724 0.0407663 0
-0.496065 1.3468 0
-1.91571 1 0
0.127849 0.190027 0
0.0875044 0.306868 0
1.34679 -0.496053 0
0.213075 0.213064 0
0.371566 1 0
1 0.475271 0
1 1.0732 0
1 -1.91562 0
1 0.37157 0
1 1 0
