# vtk DataFile Version 4.0
SiwiRVisFile
ASCII
DATASET STRUCTURED_POINTS
DIMENSIONS 5 5 1
ORIGIN 0 0 0
SPACING 1 1 1
POINT_DATA 25

SCALARS flags double 1
LOOKUP_TABLE default
1
1
1
1
1
1
1
1
1
1
1
1
1
1
1
1
1
1
1
1
1
1
1
1
1

SCALARS density double 1
LOOKUP_TABLE default
1.05516
1.06433
1.18656
1.1325
1.05966
1.20533
1.18043
0.978157
1.06341
1.31282
1.10512
1.1145
1.11745
1.11966
1.09405
1.00694
1.03326
1.24486
1.17006
0.973364
1.16035
1.13206
1.07495
1.15347
1.29432

VECTORS velocity double
-0.00569798 0.00394363 0
0.00352139 0.00387242 0
0.015508 -0.0280309 0
-0.0404218 0.00435637 0
0.0713879 0.0339994 0
-0.0125458 -0.00951149 0
0.0065476 -0.0161585 0
-0.00408609 0.0243455 0
-0.0539359 0.0169011 0
0.105811 -0.0191358 0
-0.0102422 0.000723936 0
0.00608358 0.00319153 0
-0.0299349 -0.00389971 0
-0.0277035 0.00158807 0
0.106789 0.00879406 0
-0.0161403 -0.000753869 0
-0.0104004 -0.00413888 0
-0.00511755 -0.0269161 0
-0.0513289 -0.0322626 0
0.127879 -0.00517356 0
-0.00635186 -0.00398667 0
0.00139968 -0.0184675 0
0.00605532 -0.0113955 0
-0.0244271 -0.0423374 0
0.0679201 -0.0459768 0
