# vtk DataFile Version 4.0
SiwiRVisFile
ASCII
DATASET STRUCTURED_POINTS
DIMENSIONS 5 5 1
ORIGIN 0 0 0
SPACING 1 1 1
POINT_DATA 25

SCALARS flags double 1
LOOKUP_TABLE default
1
1
1
1
1
1
1
1
1
1
1
1
1
1
1
1
1
1
1
1
1
1
1
1
1

SCALARS density double 1
LOOKUP_TABLE default
-582.399
3228.25
-345.649
-5010.73
1024.24
4264.4
2098.31
-890.628
1617.9
499.396
-3255.57
320.744
-1441.92
3396.12
-4616.79
2033.17
0.581404
-812.519
-3538.01
1113.66
-2092.01
694.579
2742.86
-941.315
518.315

VECTORS velocity double
-0.384169 -1.81777 0
0.427786 0.209733 0
-8.15935 -2.09796 0
-0.113216 0.127588 0
-0.844614 1.37651 0
-0.122746 -0.292423 0
-0.000118763 0.174449 0
-1.02833 -1.13901 0
-1.51435 -0.0416364 0
-7.47192 -2.43595 0
0.265863 0.258418 0
-5.79629 0.194103 0
-0.786721 0.217007 0
0.353009 -0.238593 0
0.0935977 0.335289 0
0.239711 0.748095 0
4921.57 -561.905 0
0.387096 -1.1285 0
-0.158397 -0.10748 0
0.551513 -0.1962 0
-0.551462 0.928534 0
0.687707 1.87424 0
0.291966 0.344586 0
0.418287 -1.57171 0
1.91757 -1.21483 0
