# vtk DataFile Version 4.0
SiwiRVisFile
ASCII
DATASET STRUCTURED_POINTS
DIMENSIONS 5 5 1
ORIGIN 0 0 0
SPACING 1 1 1
POINT_DATA 25

SCALARS flags double 1
LOOKUP_TABLE default
1
1
1
1
1
1
1
1
1
1
1
1
1
1
1
1
1
1
1
1
1
1
1
1
1

SCALARS density double 1
LOOKUP_TABLE default
448.237
432.389
344.698
207.755
-4.45333
432.258
853.143
462.035
230.814
-21.9356
344.319
461.932
368.974
54.2992
-28.2158
207.593
230.747
54.3803
51.1669
-0.998026
-4.47433
-21.9067
-28.3718
-0.963042
0.850924

VECTORS velocity double
-0.0949175 -0.0949451 0
-0.305738 -0.0449202 0
-0.197776 0.175888 0
0.132037 0.212763 0
0.38668 1 0
-0.044712 -0.305839 0
-0.00731958 -0.00734248 0
0.0880256 0.181422 0
-0.105168 0.31335 0
0.070019 1 0
0.176157 -0.197884 0
0.181422 0.0879645 0
0.103087 0.102937 0
-0.327874 -0.161052 0
0.0757162 1 0
0.21274 0.132049 0
0.313446 -0.105118 0
-0.161279 -0.327354 0
0.700126 0.699942 0
1.97066 1 0
1 0.386358 0
1 0.0696008 0
1 0.0760259 0
1 2.04408 0
1 1 0
