# vtk DataFile Version 4.0
SiwiRVisFile
ASCII
DATASET STRUCTURED_POINTS
DIMENSIONS 5 5 1
ORIGIN 0 0 0
SPACING 1 1 1
POINT_DATA 25

SCALARS flags double 1
LOOKUP_TABLE default
1
1
1
1
1
1
1
1
1
1
1
1
1
1
1
1
1
1
1
1
1
1
1
1
1

SCALARS density double 1
LOOKUP_TABLE default
1.09334
1.09337
1.24064
1.16752
1.09757
1.25093
1.22292
1.00213
1.10191
1.37249
1.13733
1.15251
1.15842
1.15467
1.14418
1.04016
1.06962
1.30382
1.22599
0.998933
1.19865
1.18622
1.08924
1.19871
1.34141

VECTORS velocity double
-0.00487883 0.00471879 0
-0.00166562 0.0101793 0
0.0219911 -0.0257443 0
-0.0438909 0.00376835 0
0.0705445 0.0410186 0
-0.00875151 -0.00929093 0
0.00413866 -0.0196709 0
-0.00430168 0.0249632 0
-0.0511925 0.0124037 0
0.0981408 -0.0207638 0
-0.00733939 0.00421424 0
0.0100621 0.00845319 0
-0.0297952 -0.00587511 0
-0.0263786 -0.00195976 0
0.092342 0.00753481 0
-0.0142514 -0.000286661 0
-0.00584247 -0.000247089 0
0.0013295 -0.0218674 0
-0.0548033 -0.0262805 0
0.11904 -0.0071512 0
-0.00265088 -0.00563357 0
-0.00364777 -0.0203273 0
0.015379 -0.00889283 0
-0.0314847 -0.032098 0
0.06852 -0.0432192 0
