# vtk DataFile Version 4.0
SiwiRVisFile
ASCII
DATASET STRUCTURED_POINTS
DIMENSIONS 5 5 1
ORIGIN 0 0 0
SPACING 1 1 1
POINT_DATA 25

SCALARS flags double 1
LOOKUP_TABLE default
1
1
1
1
1
1
1
1
1
1
1
1
1
1
1
1
1
1
1
1
1
1
1
1
1

SCALARS density double 1
LOOKUP_TABLE default
1.07219
1.07572
1.21721
1.13966
1.07498
1.23017
1.20202
0.987407
1.07863
1.3392
1.12216
1.1331
1.13722
1.13358
1.12431
1.02056
1.05084
1.27309
1.20511
0.9883
1.18059
1.15948
1.0711
1.17716
1.31271

VECTORS velocity double
-0.00660144 0.0049765 0
0.00345265 0.00958867 0
0.0189851 -0.023322 0
-0.0429328 0.00585954 0
0.0718671 0.042841 0
-0.00891102 -0.00937304 0
0.00563194 -0.0174978 0
-0.00923828 0.0281289 0
-0.0504422 0.0134416 0
0.0999442 -0.0188536 0
-0.00610666 0.00459006 0
0.00458573 0.010129 0
-0.0302671 -0.00403294 0
-0.0288135 0.000652097 0
0.0899649 0.0087777 0
-0.0125245 -0.000632059 0
-0.00476867 -0.00370139 0
-0.00206146 -0.0254779 0
-0.0539471 -0.0290402 0
0.116551 -0.0137421 0
-0.00178321 -0.00720424 0
-0.000202946 -0.0209824 0
0.011543 -0.0119756 0
-0.0305201 -0.0337363 0
0.0668471 -0.0401456 0
