# vtk DataFile Version 4.0
SiwiRVisFile
ASCII
DATASET STRUCTURED_POINTS
DIMENSIONS 5 5 1
ORIGIN 0 0 0
SPACING 1 1 1
POINT_DATA 25

SCALARS flags double 1
LOOKUP_TABLE default
1
1
1
1
1
1
1
1
1
1
1
1
1
1
1
1
1
1
1
1
1
1
1
1
1

SCALARS density double 1
LOOKUP_TABLE default
1.0949
1.09984
1.24103
1.17277
1.09877
1.25763
1.22666
1.00639
1.10467
1.37928
1.13976
1.15585
1.16125
1.15977
1.14534
1.04017
1.07365
1.30789
1.2284
1.00409
1.2019
1.18928
1.09264
1.20346
1.3462

VECTORS velocity double
-0.00514563 0.0053257 0
-0.000128848 0.0109703 0
0.0220793 -0.0250111 0
-0.0443649 0.00165245 0
0.0709794 0.0353624 0
-0.00995334 -0.00911012 0
0.00505721 -0.0199683 0
2.53919e-006 0.0245403 0
-0.0540107 0.0136607 0
0.0985289 -0.0211213 0
-0.0089073 0.00390659 0
0.0116496 0.00660096 0
-0.0308429 -0.00506417 0
-0.0250209 5.72989e-005 0
0.0906889 0.00794599 0
-0.0145372 -0.000578093 0
-0.00756444 0.00141163 0
0.0010563 -0.0227105 0
-0.0549305 -0.0264754 0
0.119184 -0.000747207 0
-0.00304185 -0.00611559 0
-0.0030876 -0.0217565 0
0.0141934 -0.00741298 0
-0.0304209 -0.0322528 0
0.0671862 -0.0428857 0
