# vtk DataFile Version 4.0
SiwiRVisFile
ASCII
DATASET STRUCTURED_POINTS
DIMENSIONS 5 5 1
ORIGIN 0 0 0
SPACING 1 1 1
POINT_DATA 25

SCALARS flags double 1
LOOKUP_TABLE default
1
1
1
1
1
1
1
1
1
1
1
1
1
1
1
1
1
1
1
1
1
1
1
1
1

SCALARS density double 1
LOOKUP_TABLE default
-29352.7
-92825.6
4116.4
-10451.7
-86193.9
-104365
981.496
-27539.1
229288
-34369.5
123154
-28895.8
241070
-189791
206237
-65034.3
-237288
242359
-159399
15756.5
-207875
535043
-113114
-342116
130630

VECTORS velocity double
-1.47159 -1.26124 0
-0.424964 -0.519885 0
1.64992 12.9987 0
7.5954 2.18209 0
0.367222 -1.28462 0
-0.521453 -1.48297 0
-127.875 141.133 0
-0.80569 -1.51028 0
-0.0667822 -0.285105 0
2.98725 -3.64475 0
-1.40619 -0.00985989 0
-5.92022 -7.01774 0
0.00653724 -0.688651 0
0.735196 -0.405812 0
0.440185 -1.07819 0
-1.12462 -0.732897 0
-0.598651 0.166568 0
-0.0546203 -0.172564 0
0.893285 -0.138841 0
9.50364 -17.0027 0
-2.02831 -0.538438 0
0.0988099 -0.333092 0
4.78264 -2.35924 0
-0.180271 0.753086 0
0.286563 0.421787 0
