# vtk DataFile Version 4.0
SiwiRVisFile
ASCII
DATASET STRUCTURED_POINTS
DIMENSIONS 5 5 1
ORIGIN 0 0 0
SPACING 1 1 1
POINT_DATA 25

SCALARS flags double 1
LOOKUP_TABLE default
1
1
1
1
1
1
1
1
1
1
1
1
1
1
1
1
1
1
1
1
1
1
1
1
1

SCALARS density double 1
LOOKUP_TABLE default
-7732.83
-13176.4
-5227.47
10747.1
8912.2
-11607.7
-7201.6
-3620.75
8795.08
2082.46
-14137.9
-8027.68
309.013
14644.3
8233.41
-17083.2
-14109.4
4861.72
11141.9
5815.11
-8204.95
-5265.7
4379.74
19346.6
16152

VECTORS velocity double
0.119209 -0.0566694 0
0.158368 -0.104929 0
0.161501 -0.565871 0
-0.24086 -0.14601 0
-0.112891 0.0600875 0
0.0453309 -0.0788776 0
0.268874 -0.310701 0
-0.0308261 -1.04124 0
-0.223697 0.245772 0
-2.84084 0.111482 0
0.110427 0.0271957 0
0.0876668 0.208509 0
-3.52553 -3.75725 0
-0.288371 -0.0998285 0
-0.069727 0.0206954 0
-0.016482 0.00575299 0
0.257398 0.0346692 0
-0.294108 -0.311595 0
-0.247334 0.124499 0
-0.561575 -0.392995 0
0.062696 0.00929273 0
-0.0530167 -0.568915 0
-0.422159 0.515997 0
0.104484 0.158148 0
0.190433 -0.0692132 0
