# vtk DataFile Version 4.0
SiwiRVisFile
ASCII
DATASET STRUCTURED_POINTS
DIMENSIONS 5 5 1
ORIGIN 0 0 0
SPACING 1 1 1
POINT_DATA 25

SCALARS flags double 1
LOOKUP_TABLE default
1
1
1
1
1
1
1
1
1
1
1
1
1
1
1
1
1
1
1
1
1
1
1
1
1

SCALARS density double 1
LOOKUP_TABLE default
0.977309
1.03342
1.00151
0.963129
1.0096
0.982053
1.02902
1.00285
0.966369
1.00712
1.02474
0.948216
0.993292
1.05398
0.987089
1.00557
0.988438
0.996876
1.01264
1.00342
0.973642
1.0608
1.00364
0.942464
1.0328

VECTORS velocity double
-0.0011015 0.00235585 0
-0.000920546 -0.00311872 0
0.0010178 0.00205005 0
-0.00394065 0.00207617 0
-0.00125512 -0.00180596 0
0.00205519 0.00347295 0
-0.00390131 -0.000686593 0
-0.0137689 0.0062926 0
-0.0129368 -0.00171558 0
-0.00104696 -0.00618103 0
0.000358192 -0.000980605 0
-0.0139083 0.0219587 0
-0.0228472 0.00839308 0
-0.0144376 -0.0154234 0
-0.00362047 -0.00967001 0
-0.00953431 0.0132416 0
-0.0127466 0.0237433 0
-0.0033973 0.00724674 0
-0.0101088 -0.0197272 0
-0.00397908 -0.0225158 0
0.0203998 0.00587046 0
0.0402562 0.00104192 0
0.0497117 0.0050926 0
0.0511048 -0.0027533 0
0.0218185 -0.0139609 0
