# vtk DataFile Version 4.0
SiwiRVisFile
ASCII
DATASET STRUCTURED_POINTS
DIMENSIONS 5 5 1
ORIGIN 0 0 0
SPACING 1 1 1
POINT_DATA 25

SCALARS flags double 1
LOOKUP_TABLE default
1
1
1
1
1
1
1
1
1
1
1
1
1
1
1
1
1
1
1
1
1
1
1
1
1

SCALARS density double 1
LOOKUP_TABLE default
1.11849
1.11902
1.26347
1.19135
1.11439
1.2798
1.25211
1.02139
1.12598
1.40626
1.15844
1.17611
1.18303
1.18284
1.17048
1.05824
1.09267
1.32949
1.25325
1.01875
1.22197
1.20935
1.10739
1.22513
1.36887

VECTORS velocity double
-0.00505469 0.00402109 0
-0.000905342 0.0110239 0
0.0228977 -0.0250072 0
-0.0440833 0.000637184 0
0.0693136 0.036951 0
-0.00959912 -0.00776504 0
0.00487128 -0.018834 0
0.00305773 0.0228489 0
-0.0545462 0.00997936 0
0.096044 -0.0213594 0
-0.00709103 0.00359906 0
0.0130822 0.00497792 0
-0.02678 -0.00602254 0
-0.0253998 0.000335852 0
0.0863353 0.00704977 0
-0.0136537 -0.00239176 0
-0.00553633 0.000597429 0
0.00360391 -0.0216883 0
-0.0546286 -0.0244054 0
0.115721 -7.82464e-005 0
-0.00268199 -0.00521914 0
-0.00373758 -0.0217966 0
0.0160774 -0.00743373 0
-0.0320742 -0.0306337 0
0.066811 -0.0428189 0
