# vtk DataFile Version 4.0
SiwiRVisFile
ASCII
DATASET STRUCTURED_POINTS
DIMENSIONS 5 5 1
ORIGIN 0 0 0
SPACING 1 1 1
POINT_DATA 25

SCALARS flags double 1
LOOKUP_TABLE default
1
1
1
1
1
1
1
1
1
1
1
1
1
1
1
1
1
1
1
1
1
1
1
1
1

SCALARS density double 1
LOOKUP_TABLE default
0.97679
1.03318
1.0014
0.962104
1.00986
0.982021
1.02902
1.0028
0.966477
1.00634
1.02638
0.949575
0.99334
1.0528
0.985829
1.00698
0.987667
0.99734
1.01329
1.0028
0.973781
1.06233
1.00353
0.94144
1.03292

VECTORS velocity double
-0.0019957 0.00207657 0
-0.00105634 -0.00317392 0
0.00023501 0.00201517 0
-0.00382989 0.00112135 0
-0.00129576 -0.00198103 0
0.00146108 0.00263957 0
-0.00384859 -0.00061314 0
-0.0143641 0.00735979 0
-0.0121634 -0.00159367 0
-0.0014318 -0.00498857 0
-0.000247536 -0.000880813 0
-0.0137776 0.0233724 0
-0.0230975 0.00660859 0
-0.0144233 -0.0166467 0
-0.00302547 -0.0123422 0
-0.0106393 0.00892055 0
-0.0107398 0.0205727 0
-0.00566493 0.00777616 0
-0.00963698 -0.017023 0
-0.00537454 -0.0197939 0
0.0226912 0.020794 0
0.0413696 0.00288429 0
0.0496331 0.00470013 0
0.0487145 -0.00868734 0
0.0243221 -0.0143516 0
