# vtk DataFile Version 4.0
SiwiRVisFile
ASCII
DATASET STRUCTURED_POINTS
DIMENSIONS 5 5 1
ORIGIN 0 0 0
SPACING 1 1 1
POINT_DATA 25

SCALARS flags double 1
LOOKUP_TABLE default
1
1
1
1
1
1
1
1
1
1
1
1
1
1
1
1
1
1
1
1
1
1
1
1
1

SCALARS density double 1
LOOKUP_TABLE default
434.873
417.393
451.328
132.546
17.8938
417.278
719.613
526.453
98.9304
18.66
451.005
526.357
329.811
170.916
-4.98059
132.412
98.8518
170.872
-29.2144
3.87808
17.9446
18.6371
-4.96508
3.89222
-5.52073

VECTORS velocity double
-0.068462 -0.0684228 0
-0.282727 -0.0339665 0
-0.100469 0.0545195 0
-0.0210779 0.361877 0
0.0113611 1 0
-0.0338291 -0.282887 0
0.0650423 0.0649364 0
0.014285 0.129369 0
0.293394 0.369475 0
0.0116661 1 0
0.0545008 -0.100567 0
0.12941 0.014135 0
0.195216 0.195176 0
0.0421237 0.259205 0
2.40847 1 0
0.362108 -0.0213689 0
0.369253 0.293322 0
0.25931 0.04201 0
1.60667 1.6066 0
0.563902 1 0
1 0.0110589 0
1 0.0110535 0
1 2.4132 0
1 0.561589 0
1 1 0
