# vtk DataFile Version 4.0
SiwiRVisFile
ASCII
DATASET STRUCTURED_POINTS
DIMENSIONS 5 5 1
ORIGIN 0 0 0
SPACING 1 1 1
POINT_DATA 25

SCALARS flags double 1
LOOKUP_TABLE default
1
1
1
1
1
1
1
1
1
1
1
1
1
1
1
1
1
1
1
1
1
1
1
1
1

SCALARS density double 1
LOOKUP_TABLE default
1.0498
0.973396
0.848777
0.973396
1.0498
0.973396
0.912181
0.914783
0.912181
0.973396
0.848777
0.914783
1.11814
0.914783
0.848777
0.973396
0.912181
0.914783
0.912181
0.973396
1.0498
0.973396
0.848777
0.973396
1.0498

VECTORS velocity double
-0.00853764 -0.00853764 0
-0.0319873 -0.0169872 0
0.021138 8.17517e-018 0
-0.0319873 0.0169872 0
-0.00853764 0.00853764 0
-0.0169872 -0.0319873 0
-0.0654758 -0.0654758 0
0.0508984 -3.03412e-017 0
-0.0654758 0.0654758 0
-0.0169872 0.0319873 0
6.54014e-017 0.021138 0
2.27559e-017 0.0508984 0
-1.86173e-017 -2.7926e-017 0
7.58529e-018 -0.0508984 0
-8.17517e-018 -0.021138 0
0.0169872 -0.0319873 0
0.0654758 -0.0654758 0
-0.0508984 7.58529e-017 0
0.0654758 0.0654758 0
0.0169872 0.0319873 0
0.00853764 -0.00853764 0
0.0319873 -0.0169872 0
-0.021138 5.72262e-017 0
0.0319873 0.0169872 0
0.00853764 0.00853764 0
