# vtk DataFile Version 4.0
SiwiRVisFile
ASCII
DATASET STRUCTURED_POINTS
DIMENSIONS 5 5 1
ORIGIN 0 0 0
SPACING 1 1 1
POINT_DATA 25

SCALARS flags double 1
LOOKUP_TABLE default
1
1
1
1
1
1
1
1
1
1
1
1
1
1
1
1
1
1
1
1
1
1
1
1
1

SCALARS density double 1
LOOKUP_TABLE default
1.12172
1.12338
1.26573
1.1937
1.11781
1.28336
1.25572
1.0246
1.13161
1.41018
1.16113
1.1797
1.18521
1.18653
1.17323
1.06203
1.0955
1.33372
1.25526
1.0211
1.22502
1.21352
1.11119
1.22883
1.37283

VECTORS velocity double
-0.00526998 0.00455337 0
-0.00199877 0.0115685 0
0.0234546 -0.0247928 0
-0.044089 0.00190148 0
0.0695474 0.038833 0
-0.00969434 -0.00780691 0
0.00454024 -0.0187618 0
0.000970557 0.0223541 0
-0.052679 0.00881157 0
0.0959045 -0.0212346 0
-0.00782236 0.00329718 0
0.0132442 0.00550951 0
-0.0256048 -0.00608518 0
-0.0263795 -0.00119645 0
0.0857737 0.00683776 0
-0.0140302 -0.0017267 0
-0.00414533 0.00021431 0
0.00366937 -0.0209503 0
-0.0546356 -0.0234235 0
0.112742 -0.00456862 0
-0.0026045 -0.00581478 0
-0.00378769 -0.0218947 0
0.0169427 -0.00780509 0
-0.0324893 -0.029495 0
0.0676421 -0.0427036 0
