# vtk DataFile Version 4.0
SiwiRVisFile
ASCII
DATASET STRUCTURED_POINTS
DIMENSIONS 5 5 1
ORIGIN 0 0 0
SPACING 1 1 1
POINT_DATA 25

SCALARS flags double 1
LOOKUP_TABLE default
1
1
1
1
1
1
1
1
1
1
1
1
1
1
1
1
1
1
1
1
1
1
1
1
1

SCALARS density double 1
LOOKUP_TABLE default
403.051
461.446
339.72
184.984
9.98838
461.296
811.656
487.477
153.477
14.0531
339.418
487.342
337.638
101.568
-1.60387
184.857
153.355
101.589
-52.4133
29.2466
9.95954
14.0719
-1.62139
29.2491
12.5993

VECTORS velocity double
-8.16905e-006 -1.40996e-005 0
-0.227048 -0.0491137 0
-0.0926502 0.0575143 0
0.0142859 0.48706 0
0.944573 1 0
-0.0490287 -0.22714 0
0.0318266 0.0317608 0
0.0171517 0.149445 0
-0.0223979 0.461251 0
-0.416478 1 0
0.0574967 -0.0927583 0
0.149482 0.0170981 0
0.0520495 0.0520723 0
0.035129 0.327702 0
2.80259 1 0
0.487151 0.0142182 0
0.461421 -0.0223148 0
0.327646 0.0353492 0
-0.200124 -0.200199 0
0.0651056 1 0
1 0.947355 0
1 -0.41558 0
1 2.77424 0
1 0.0651094 0
1 1 0
