# vtk DataFile Version 4.0
SiwiRVisFile
ASCII
DATASET STRUCTURED_POINTS
DIMENSIONS 5 5 1
ORIGIN 0 0 0
SPACING 1 1 1
POINT_DATA 25

SCALARS flags double 1
LOOKUP_TABLE default
1
1
1
1
1
1
1
1
1
1
1
1
1
1
1
1
1
1
1
1
1
1
1
1
1

SCALARS density double 1
LOOKUP_TABLE default
0.977173
1.03309
1.00162
0.961127
1.00987
0.98172
1.0293
1.00254
0.966169
1.00601
1.02782
0.950593
0.993071
1.0514
0.984567
1.00836
0.98744
0.997161
1.01415
1.00209
0.974341
1.06301
1.00319
0.941404
1.0328

VECTORS velocity double
-0.00116951 0.00151634 0
-0.00132496 -0.00324009 0
0.000537713 0.00183986 0
-0.0044172 0.0017506 0
-0.0010977 -0.00143502 0
0.00210563 0.0022336 0
-0.00428212 -0.000518294 0
-0.0147513 0.00620132 0
-0.0133036 -0.00288245 0
-0.000960087 -0.00604378 0
8.73517e-005 -0.0017891 0
-0.0139817 0.0224982 0
-0.0224562 0.00831146 0
-0.0139802 -0.016221 0
-0.0037957 -0.00953353 0
-0.00982681 0.0131261 0
-0.0131561 0.0238614 0
-0.00365158 0.00758195 0
-0.0100503 -0.0197152 0
-0.00400975 -0.022624 0
0.0200597 0.00532033 0
0.0402661 0.00100312 0
0.0509225 0.00529965 0
0.0518977 -0.00230158 0
0.0217725 -0.0138287 0
