# vtk DataFile Version 4.0
SiwiRVisFile
ASCII
DATASET STRUCTURED_POINTS
DIMENSIONS 5 5 1
ORIGIN 0 0 0
SPACING 1 1 1
POINT_DATA 25

SCALARS flags double 1
LOOKUP_TABLE default
1
1
1
1
1
1
1
1
1
1
1
1
1
1
1
1
1
1
1
1
1
1
1
1
1

SCALARS density double 1
LOOKUP_TABLE default
-9941.03
-6700.63
-1085.97
4545.51
7312.76
-10308.7
-7387.09
-1818.9
4393.43
7958.47
-11074.1
-6975.92
-689.156
5649.55
8946.66
-11211.2
-3290.86
4702.86
8642.89
9046.84
-11719.9
-3575.72
5510.73
9742.01
9352.43

VECTORS velocity double
-0.00273589 -0.0115601 0
0.103204 0.00680638 0
1.0213 0.0676306 0
-0.180785 0.019013 0
-0.0516168 0.0228033 0
0.0573135 -0.00208871 0
0.136564 -0.0293435 0
0.671046 -0.116487 0
-0.188462 -0.0443855 0
-0.0305985 -0.0257753 0
0.0326073 -0.0165502 0
0.0974354 0.0409725 0
1.79646 0.476781 0
-0.171087 -0.0854028 0
0.0186465 -0.0472079 0
0.0814068 -0.0135117 0
0.448229 0.352906 0
-0.299727 -0.281821 0
-0.112815 -0.0612031 0
-0.0500357 0.0771275 0
0.248748 0.0599067 0
0.621092 -0.127001 0
-0.121909 0.0693778 0
0.10384 -0.0205298 0
0.207685 -0.104189 0
