# vtk DataFile Version 4.0
SiwiRVisFile
ASCII
DATASET STRUCTURED_POINTS
DIMENSIONS 5 5 1
ORIGIN 0 0 0
SPACING 1 1 1
POINT_DATA 25

SCALARS flags double 1
LOOKUP_TABLE default
1
1
1
1
1
1
1
1
1
1
1
1
1
1
1
1
1
1
1
1
1
1
1
1
1

SCALARS density double 1
LOOKUP_TABLE default
1.15967
1.16063
1.30893
1.23117
1.15363
1.32573
1.29433
1.06043
1.16799
1.45879
1.19992
1.21711
1.22621
1.22844
1.21421
1.09508
1.13333
1.3738
1.29794
1.0569
1.26337
1.25225
1.14615
1.26976
1.41635

VECTORS velocity double
-0.00519982 0.00438707 0
-0.00210559 0.0124267 0
0.0237311 -0.023522 0
-0.043823 7.16923e-005 0
0.0686955 0.0375364 0
-0.0105833 -0.00696377 0
0.00466266 -0.0171932 0
0.00517054 0.0198998 0
-0.0534145 0.00659795 0
0.0942029 -0.0213021 0
-0.00924839 0.00313511 0
0.0158508 0.0041922 0
-0.0222092 -0.00597535 0
-0.0253709 -0.00105177 0
0.0815117 0.00592316 0
-0.0146775 -0.00181711 0
-0.00278168 0.00150959 0
0.00648889 -0.0200458 0
-0.0550266 -0.0205404 0
0.10875 -0.000588272 0
-0.00270639 -0.0057448 0
-0.00421026 -0.0219264 0
0.018889 -0.00402827 0
-0.0341865 -0.0249298 0
0.066569 -0.0418696 0
