# vtk DataFile Version 4.0
SiwiRVisFile
ASCII
DATASET STRUCTURED_POINTS
DIMENSIONS 5 5 1
ORIGIN 0 0 0
SPACING 1 1 1
POINT_DATA 25

SCALARS flags double 1
LOOKUP_TABLE default
1
1
1
1
1
1
1
1
1
1
1
1
1
1
1
1
1
1
1
1
1
1
1
1
1

SCALARS density double 1
LOOKUP_TABLE default
0.978562
1.03623
1.00284
0.960106
1.00959
0.982816
1.03016
1.00342
0.96555
1.00585
1.02949
0.950262
0.992765
1.05199
0.982752
1.00822
0.987008
0.995919
1.01335
1.00086
0.973792
1.06356
1.00312
0.940963
1.03083

VECTORS velocity double
-0.00179247 0.00238286 0
-0.000270181 -0.00337396 0
0.000930387 0.00208464 0
-0.00329837 0.0001359 0
-0.00101315 -0.00235596 0
0.00189012 0.00279456 0
-0.00326599 -0.0008849 0
-0.0147435 0.00760691 0
-0.0121465 -0.00268514 0
-0.00100148 -0.00585921 0
0.000689845 -0.00110838 0
-0.011665 0.0244598 0
-0.0212084 0.00621604 0
-0.0131897 -0.0180866 0
-0.00264382 -0.0150725 0
-0.00987616 0.00826934 0
-0.00777497 0.0202561 0
-0.00214159 0.00819621 0
-0.00664539 -0.0175931 0
-0.00433388 -0.0219009 0
0.0243435 0.0219573 0
0.042277 0.00187112 0
0.0516725 0.0054288 0
0.0501419 -0.00963996 0
0.025177 -0.0146265 0
