# vtk DataFile Version 4.0
SiwiRVisFile
ASCII
DATASET STRUCTURED_POINTS
DIMENSIONS 5 5 1
ORIGIN 0 0 0
SPACING 1 1 1
POINT_DATA 25

SCALARS flags double 1
LOOKUP_TABLE default
1
1
1
1
1
1
1
1
1
1
1
1
1
1
1
1
1
1
1
1
1
1
1
1
1

SCALARS density double 1
LOOKUP_TABLE default
1.14348
1.14594
1.29139
1.21584
1.13857
1.30932
1.27892
1.04515
1.15095
1.43853
1.18487
1.20145
1.21012
1.21149
1.19802
1.08098
1.11799
1.35758
1.28068
1.0417
1.24783
1.23557
1.13188
1.2535
1.39818

VECTORS velocity double
-0.00522188 0.00432359 0
-0.00143469 0.0122099 0
0.0233053 -0.0242116 0
-0.0439538 -0.000201524 0
0.0688484 0.0371934 0
-0.0105132 -0.00721296 0
0.00499524 -0.0175992 0
0.00561823 0.0215455 0
-0.0541794 0.00812365 0
0.095235 -0.0212591 0
-0.00882146 0.00318427 0
0.0149663 0.00445493 0
-0.0237831 -0.00595012 0
-0.024819 -3.2632e-005 0
0.0836019 0.00658633 0
-0.0145853 -0.00199611 0
-0.00377449 0.00154018 0
0.00539607 -0.0204039 0
-0.0553466 -0.0219533 0
0.112116 0.00117616 0
-0.0027908 -0.0056523 0
-0.00403978 -0.0219285 0
0.0180111 -0.00470542 0
-0.0336462 -0.0267364 0
0.0663354 -0.0422923 0
