# vtk DataFile Version 4.0
SiwiRVisFile
ASCII
DATASET STRUCTURED_POINTS
DIMENSIONS 5 5 1
ORIGIN 0 0 0
SPACING 1 1 1
POINT_DATA 25

SCALARS flags double 1
LOOKUP_TABLE default
1
1
1
1
1
1
1
1
1
1
1
1
1
1
1
1
1
1
1
1
1
1
1
1
1

SCALARS density double 1
LOOKUP_TABLE default
-14051.3
20565.7
-33155.7
28349.2
-8245.65
-17094.2
-7076.64
10754
4862.24
-6250.97
23447.9
-14105.2
28961.1
7696.29
2731.96
-31854
3256.52
-2558.53
-11619.3
12824.5
-81288.8
35957.2
40087.4
5030.6
2800.59

VECTORS velocity double
-0.936735 0.489707 0
-0.223453 0.482075 0
-0.0486038 -0.0630511 0
-0.0250119 0.15214 0
1.4857 1.60763 0
-0.284662 -0.15482 0
-1.76355 -2.11996 0
-0.353848 0.799999 0
-2.82232 -1.45568 0
-0.781455 0.470898 0
-0.0805902 0.0703778 0
-1.14679 0.113688 0
0.313573 0.438028 0
-1.26914 -0.276896 0
-5.06479 -4.34575 0
0.796574 0.0455141 0
-2.52324 0.157479 0
-3.4373 2.40037 0
-2.01792 -0.0996245 0
0.965214 0.110656 0
0.327694 -0.148902 0
-0.0800723 -0.0156981 0
0.329588 0.0341932 0
-0.875162 -0.295421 0
-1.29513 1.91236 0
