# vtk DataFile Version 4.0
SiwiRVisFile
ASCII
DATASET STRUCTURED_POINTS
DIMENSIONS 5 5 1
ORIGIN 0 0 0
SPACING 1 1 1
POINT_DATA 25

SCALARS flags double 1
LOOKUP_TABLE default
1
1
1
1
1
1
1
1
1
1
1
1
1
1
1
1
1
1
1
1
1
1
1
1
1

SCALARS density double 1
LOOKUP_TABLE default
560247
-802119
743774
-302472
-108664
-107548
193777
-87762
41588.2
688574
-221406
436045
-688071
-81700.6
-659763
88508.2
79773.7
-1.06299e+006
756928
274358
1.08259e+006
-286887
107086
-632484
-11360.9

VECTORS velocity double
-1.37824 -0.386092 0
0.0892527 -0.25601 0
-0.198341 -0.0260677 0
4.18479 -1.69067 0
7.38038 5.48203 0
-3.28393 -1.46836 0
-4.44444 0.681661 0
11.7341 -3.65134 0
1.60324 -4.35152 0
1.04479 -1.99414 0
2.58675 -3.52584 0
-1.28316 0.173634 0
-0.142912 0.184233 0
-14.6895 10.7533 0
-0.275951 0.441287 0
0.407432 13.4998 0
0.879217 -0.991956 0
-0.195996 0.146634 0
0.770087 -0.635533 0
0.911368 0.546529 0
-0.991963 0.142245 0
5.21971 -2.18863 0
-3.20447 -4.20811 0
0.765189 0.189475 0
11.8593 -2.51076 0
