# vtk DataFile Version 4.0
SiwiRVisFile
ASCII
DATASET STRUCTURED_POINTS
DIMENSIONS 5 5 1
ORIGIN 0 0 0
SPACING 1 1 1
POINT_DATA 25

SCALARS flags double 1
LOOKUP_TABLE default
1
1
1
1
1
1
1
1
1
1
1
1
1
1
1
1
1
1
1
1
1
1
1
1
1

SCALARS density double 1
LOOKUP_TABLE default
1.18177
1.18224
1.33235
1.25242
1.17486
1.34882
1.31564
1.08128
1.1889
1.48413
1.22164
1.23851
1.24907
1.25096
1.23754
1.11476
1.15454
1.39635
1.32124
1.07799
1.28341
1.27422
1.16631
1.29318
1.44025

VECTORS velocity double
-0.00504672 0.00433519 0
-0.00219664 0.0128203 0
0.023957 -0.0229478 0
-0.0434518 -0.000682605 0
0.0684357 0.0369731 0
-0.0108694 -0.00665149 0
0.00436247 -0.0167888 0
0.0078372 0.0190741 0
-0.0538848 0.00531866 0
0.0934684 -0.0212135 0
-0.00970714 0.00291609 0
0.0168456 0.00329558 0
-0.0210323 -0.00612243 0
-0.0246556 -0.000773258 0
0.0797783 0.00526172 0
-0.0146676 -0.00208101 0
-0.00229075 0.00202637 0
0.00750854 -0.0196125 0
-0.0549824 -0.019585 0
0.10778 0.00222672 0
-0.0027546 -0.00558325 0
-0.00442093 -0.0219108 0
0.0195998 -0.00279153 0
-0.0346924 -0.0231577 0
0.0658115 -0.0415957 0
