# vtk DataFile Version 4.0
SiwiRVisFile
ASCII
DATASET STRUCTURED_POINTS
DIMENSIONS 5 5 1
ORIGIN 0 0 0
SPACING 1 1 1
POINT_DATA 25

SCALARS flags double 1
LOOKUP_TABLE default
1
1
1
1
1
1
1
1
1
1
1
1
1
1
1
1
1
1
1
1
1
1
1
1
1

SCALARS density double 1
LOOKUP_TABLE default
1626.13
-6711.37
-7884.64
4930.52
10647.1
-7903.85
-20363.8
30972.3
-18926.9
8344.85
23482.7
-32829.3
-4913.5
-26329.9
36390.1
-3006.05
-22887.4
37084.8
-18078.7
6590.9
-4255.03
667.693
-1608.14
1345.53
13641.1

VECTORS velocity double
-0.966968 -9.66104 0
-0.459251 -1.80245 0
-0.573984 0.610412 0
-0.216077 2.59935 0
-0.193482 -1.15888 0
2.1165 0.419421 0
0.617169 0.466361 0
-0.0228499 0.231159 0
-0.0490005 -0.0468576 0
1.87895 -0.740584 0
-0.672328 0.197009 0
0.441255 -0.00962742 0
-0.192884 0.498534 0
-0.518624 -0.0390764 0
0.471783 -0.182239 0
5.38698 -1.53045 0
0.00698448 0.190147 0
-0.113758 -0.209012 0
-0.636248 -0.551311 0
2.88712 0.569271 0
-0.258237 -2.48611 0
1.10141 -18.9741 0
3.44152 -3.7772 0
-2.4037 -10.1269 0
0.169633 1.16628 0
