# vtk DataFile Version 4.0
SiwiRVisFile
ASCII
DATASET STRUCTURED_POINTS
DIMENSIONS 5 5 1
ORIGIN 0 0 0
SPACING 1 1 1
POINT_DATA 25

SCALARS flags double 1
LOOKUP_TABLE default
1
1
1
1
1
1
1
1
1
1
1
1
1
1
1
1
1
1
1
1
1
1
1
1
1

SCALARS density double 1
LOOKUP_TABLE default
0.977779
1.01371
1.00015
0.985416
1.02119
0.998102
1.00273
0.999545
0.996657
1.0008
1.00995
0.961083
0.994794
1.0374
0.993069
1.00366
0.979681
0.996298
1.01707
1.00661
0.966334
1.0191
1.00067
0.980316
1.03789

VECTORS velocity double
0.00074286 0.00905881 0
-0.00718191 -0.00263177 0
-0.00168844 -0.000130066 0
-0.00754091 0.0032921 0
0.000945122 -0.00830198 0
0.00317811 0.0116773 0
0.00354325 0.00356862 0
-0.00349046 0.00113688 0
0.00266908 -0.00263589 0
0.00271654 -0.0104873 0
-0.00129809 -0.00130042 0
-0.00710459 0.0139906 0
-0.0241955 0.00232268 0
-0.0081348 -0.0133021 0
-0.00134641 0.000719898 0
-0.0113269 0.00819333 0
-0.0237879 0.0131092 0
-0.00576331 0.00175704 0
-0.0252395 -0.0101973 0
-0.0107024 -0.0111084 0
0.0157616 0.0157387 0
0.0415433 0.00363094 0
0.0279093 0.00059972 0
0.0394614 -0.0024332 0
0.0176471 -0.0134011 0
