# vtk DataFile Version 4.0
SiwiRVisFile
ASCII
DATASET STRUCTURED_POINTS
DIMENSIONS 5 5 1
ORIGIN 0 0 0
SPACING 1 1 1
POINT_DATA 25

SCALARS flags double 1
LOOKUP_TABLE default
1
1
1
1
1
1
1
1
1
1
1
1
1
1
1
1
1
1
1
1
1
1
1
1
1

SCALARS density double 1
LOOKUP_TABLE default
-5425.81
354.527
-762.618
607.128
-1250.86
-1278.43
1474.32
-145.38
5561.53
5545.69
-3797.61
734.757
-933.623
2794.38
3414.77
-14012.5
6908.72
7048.15
2268.47
6817.63
-33008.3
-2698.59
12899.5
8297.25
-1388.11

VECTORS velocity double
0.000861937 -0.619215 0
-5.67164 -5.98173 0
0.884971 -1.43428 0
3.57097 1.47396 0
-0.629904 -0.0130835 0
-0.280445 -1.0674 0
-0.295304 -0.158668 0
16.0193 6.78451 0
0.111693 -0.579395 0
0.384844 0.107438 0
-0.883714 0.192157 0
3.13964 -0.591133 0
1.22567 0.495835 0
-0.586104 -0.268409 0
-0.553239 -0.5048 0
0.100394 -0.103455 0
-0.327525 0.0482192 0
-0.0661754 0.0745346 0
-0.690034 -0.0564596 0
-0.101683 -0.145616 0
0.371977 -0.0281653 0
1.84458 -0.73472 0
0.235803 0.002849 0
0.430821 -0.00250204 0
-0.252481 2.43049 0
