# vtk DataFile Version 4.0
SiwiRVisFile
ASCII
DATASET STRUCTURED_POINTS
DIMENSIONS 5 5 1
ORIGIN 0 0 0
SPACING 1 1 1
POINT_DATA 25

SCALARS flags double 1
LOOKUP_TABLE default
1
1
1
1
1
1
1
1
1
1
1
1
1
1
1
1
1
1
1
1
1
1
1
1
1

SCALARS density double 1
LOOKUP_TABLE default
1124.17
-10126.6
5783.46
75.5008
-1193.2
-699.113
-5222.59
2761.43
3834.76
3285.54
-5375.09
2673.82
2403.56
2679.48
3341.72
-9622.47
1220.78
8849.12
6116.7
4858.3
-25191.8
-2053.45
10122.8
-2409.83
2788.04

VECTORS velocity double
-3.37748 -0.216692 0
-0.327362 -0.0154588 0
0.677614 0.176227 0
-9.33902 6.29336 0
0.278711 -0.72666 0
0.602732 5.70983 0
-0.255821 -0.316734 0
0.636188 1.45981 0
0.0273216 0.328481 0
-0.16189 0.095611 0
0.0999556 -0.346473 0
-0.449051 -0.0309462 0
-1.04298 -0.183969 0
-1.02804 0.763302 0
-0.0981542 0.186823 0
0.0692704 -0.456361 0
-2.43666 -2.91017 0
-0.31322 -0.127595 0
-0.176559 -0.167731 0
-0.0623203 0.353882 0
0.339007 -0.0150814 0
2.30353 -1.43174 0
-0.205361 0.0132373 0
0.593044 2.4777 0
0.535463 0.0410411 0
