# vtk DataFile Version 4.0
SiwiRVisFile
ASCII
DATASET STRUCTURED_POINTS
DIMENSIONS 5 5 1
ORIGIN 0 0 0
SPACING 1 1 1
POINT_DATA 25

SCALARS flags double 1
LOOKUP_TABLE default
1
1
1
1
1
1
1
1
1
1
1
1
1
1
1
1
1
1
1
1
1
1
1
1
1

SCALARS density double 1
LOOKUP_TABLE default
0.977319
1.03634
1.00379
0.961148
1.01083
0.981583
1.03024
1.004
0.96525
1.00687
1.02812
0.947384
0.991713
1.05376
0.984839
1.0071
0.986965
0.99527
1.01379
1.00177
0.972633
1.06351
1.00324
0.940474
1.03205

VECTORS velocity double
-0.000903223 0.00155276 0
-0.00136405 -0.00304704 0
-0.000317874 0.00320713 0
-0.00532735 0.00171691 0
-0.00129118 -0.00111871 0
0.00253152 0.00348205 0
-0.00468537 0.00105129 0
-0.0162526 0.00692193 0
-0.0164169 -0.00612115 0
-0.00150827 -0.00931563 0
0.00139891 -0.00142919 0
-0.0126587 0.0267276 0
-0.0205055 0.0103456 0
-0.013071 -0.01779 0
-0.00419606 -0.0136087 0
-0.00779946 0.0156808 0
-0.0098874 0.0277703 0
0.00335499 0.0104199 0
-0.00500819 -0.0239016 0
-0.000855279 -0.0269612 0
0.0168524 -0.00267381 0
0.0426796 0.000396167 0
0.0535144 0.0061816 0
0.0585255 -0.000242929 0
0.019678 -0.0134334 0
