# vtk DataFile Version 4.0
SiwiRVisFile
ASCII
DATASET STRUCTURED_POINTS
DIMENSIONS 5 5 1
ORIGIN 0 0 0
SPACING 1 1 1
POINT_DATA 25

SCALARS flags double 1
LOOKUP_TABLE default
1
1
1
1
1
1
1
1
1
1
1
1
1
1
1
1
1
1
1
1
1
1
1
1
1

SCALARS density double 1
LOOKUP_TABLE default
389.646
362.476
306.631
141.909
6.36707
362.404
524.059
407.446
132.578
2.3925
306.494
407.373
285.903
79.551
3.95639
141.834
132.53
79.5424
20.4183
0.794059
6.36447
2.39055
3.95696
0.794281
-0.354477

VECTORS velocity double
-0.0174448 -0.0174806 0
-0.145179 -0.0218252 0
-0.0983016 0.0848162 0
-0.00802214 0.329882 0
0.823679 1 0
-0.0217726 -0.145222 0
-0.014523 -0.0145752 0
0.0143039 0.140713 0
0.000770822 0.332555 0
-0.0542519 1 0
0.0848323 -0.0983372 0
0.140752 0.0142566 0
0.155194 0.15516 0
0.116018 0.330977 0
0.217214 1 0
0.329885 -0.00802491 0
0.332554 0.000715078 0
0.330984 0.115989 0
0.322716 0.322735 0
0.61321 1 0
1 0.823905 0
1 -0.0541071 0
1 0.217251 0
1 0.612887 0
1 1 0
