# vtk DataFile Version 4.0
SiwiRVisFile
ASCII
DATASET STRUCTURED_POINTS
DIMENSIONS 5 5 1
ORIGIN 0 0 0
SPACING 1 1 1
POINT_DATA 25

SCALARS flags double 1
LOOKUP_TABLE default
1
1
1
1
1
1
1
1
1
1
1
1
1
1
1
1
1
1
1
1
1
1
1
1
1

SCALARS density double 1
LOOKUP_TABLE default
-5620.55
715.942
-410.485
2961.12
-2824.31
1122.15
-6075.59
6505.1
1705.16
3619.8
-1961.93
-4590.95
-343.612
1919.76
6322.93
-10894.2
7604.14
11637.3
2580.11
6027.22
-41870
-2255.67
18248.5
5169.45
733.647

VECTORS velocity double
-0.248835 -0.238369 0
-2.57602 1.59671 0
2.72523 2.39405 0
-0.629181 0.0324377 0
0.434921 0.332832 0
-2.71205 -1.27568 0
-0.0251162 -0.157669 0
0.0627929 -0.0409558 0
-0.30597 -0.455035 0
0.0852707 -0.670775 0
0.0693099 -0.545747 0
-0.255111 0.358946 0
3.21535 -6.19288 0
-0.422212 0.471239 0
0.174657 -0.109552 0
0.450933 -0.353469 0
-0.219183 -0.364731 0
0.0731719 -0.0521546 0
-0.150456 0.28632 0
0.0172533 0.209242 0
0.375154 0.020594 0
2.58811 -0.518023 0
0.181646 -0.0726541 0
0.325864 -0.525701 0
0.232185 -0.255034 0
