# vtk DataFile Version 4.0
SiwiRVisFile
ASCII
DATASET STRUCTURED_POINTS
DIMENSIONS 5 5 1
ORIGIN 0 0 0
SPACING 1 1 1
POINT_DATA 25

SCALARS flags double 1
LOOKUP_TABLE default
1
1
1
1
1
1
1
1
1
1
1
1
1
1
1
1
1
1
1
1
1
1
1
1
1

SCALARS density double 1
LOOKUP_TABLE default
1.25205
1.2503
1.40478
1.31952
1.24258
1.4185
1.38201
1.14959
1.258
1.56258
1.2891
1.30589
1.31858
1.32228
1.3094
1.17874
1.22361
1.46488
1.39395
1.14558
1.3463
1.34261
1.23095
1.36529
1.5144

VECTORS velocity double
-0.00472438 0.00420108 0
-0.00300087 0.0133343 0
0.0243742 -0.0212643 0
-0.0422599 -0.00158064 0
0.0673483 0.0362186 0
-0.0112155 -0.00581283 0
0.00356134 -0.0155106 0
0.0106259 0.0164125 0
-0.0530994 0.0024941 0
0.0910337 -0.0207654 0
-0.0104671 0.00251442 0
0.0181814 0.00184101 0
-0.0170937 -0.00627168 0
-0.0244162 -0.00146763 0
0.0749688 0.00392786 0
-0.0144529 -0.00204233 0
-0.000910343 0.00271811 0
0.00991724 -0.0186255 0
-0.0542119 -0.0165593 0
0.102414 0.00382852 0
-0.0026522 -0.00535808 0
-0.00472277 -0.021474 0
0.0212187 -0.000554345 0
-0.0354161 -0.0189608 0
0.0648956 -0.0406515 0
