# vtk DataFile Version 4.0
SiwiRVisFile
ASCII
DATASET STRUCTURED_POINTS
DIMENSIONS 5 5 1
ORIGIN 0 0 0
SPACING 1 1 1
POINT_DATA 25

SCALARS flags double 1
LOOKUP_TABLE default
1
1
1
1
1
1
1
1
1
1
1
1
1
1
1
1
1
1
1
1
1
1
1
1
1

SCALARS density double 1
LOOKUP_TABLE default
347.288
324.447
272.425
125.491
5.6625
324.396
464.596
363.836
117.887
2.14333
272.33
363.784
255.065
70.4501
3.59904
125.437
117.853
70.4437
17.9437
0.733689
5.66061
2.14188
3.59943
0.733849
-0.289151

VECTORS velocity double
-0.017356 -0.0173865 0
-0.139996 -0.0208884 0
-0.0974988 0.085912 0
-0.0103745 0.330418 0
0.851957 1 0
-0.0208495 -0.140029 0
-0.0169981 -0.0170391 0
0.0130659 0.14168 0
-0.000119634 0.333413 0
-0.0567605 1 0
0.0859276 -0.0975239 0
0.141712 0.0130281 0
0.156348 0.15632 0
0.117903 0.332083 0
0.239016 1 0
0.33042 -0.0103757 0
0.333413 -0.000164783 0
0.33209 0.117879 0
0.322977 0.322993 0
0.625485 1 0
1 0.852155 0
1 -0.0566366 0
1 0.239039 0
1 0.625234 0
1 1 0
