# vtk DataFile Version 4.0
SiwiRVisFile
ASCII
DATASET STRUCTURED_POINTS
DIMENSIONS 5 5 1
ORIGIN 0 0 0
SPACING 1 1 1
POINT_DATA 25

SCALARS flags double 1
LOOKUP_TABLE default
1
1
1
1
1
1
1
1
1
1
1
1
1
1
1
1
1
1
1
1
1
1
1
1
1

SCALARS density double 1
LOOKUP_TABLE default
-317919
256347
-143284
223853
56709.4
311897
460444
-1.08599e+006
22638.7
-19216.7
529909
460707
-491843
59152.6
-407436
140817
-396867
-783863
950576
137918
-381734
-859996
-831501
794292
1.31441e+006

VECTORS velocity double
-0.143533 0.373347 0
-0.806699 -0.333515 0
0.31501 0.657892 0
-0.176335 0.598162 0
-3.69561 1.58719 0
0.15386 -0.695385 0
0.203795 -0.135995 0
-0.000391623 -0.193991 0
-0.360192 -1.24394 0
2.94408 -9.70244 0
0.28822 -0.185664 0
-0.107568 0.142427 0
-0.453858 -0.447664 0
4.62869 -0.767052 0
0.507809 0.284014 0
2.44943 0.239477 0
-0.515359 -0.573133 0
0.00175391 0.235087 0
-0.26439 -0.123414 0
-1.93039 -1.48094 0
-0.358519 0.206904 0
0.301349 -0.264157 0
0.441977 -0.178783 0
-0.067674 -0.176226 0
0.143516 -0.20096 0
