# vtk DataFile Version 4.0
SiwiRVisFile
ASCII
DATASET STRUCTURED_POINTS
DIMENSIONS 5 5 1
ORIGIN 0 0 0
SPACING 1 1 1
POINT_DATA 25

SCALARS flags double 1
LOOKUP_TABLE default
1
1
1
1
1
1
1
1
1
1
1
1
1
1
1
1
1
1
1
1
1
1
1
1
1

SCALARS density double 1
LOOKUP_TABLE default
0.926884
1.01471
1.1
1.03041
0.997302
1.05536
1.06457
0.963399
0.967628
1.12888
1.0227
1.03143
1.01784
1.03988
1.02034
0.982107
0.99207
1.09164
1.11455
0.957256
1.10232
1.03669
1.01138
1.08925
1.19372

VECTORS velocity double
-0.00818526 0.012189 0
0.0145681 0.0220413 0
0.0128836 -0.0236416 0
-0.0273432 0.0495108 0
0.0753165 0.0437032 0
-0.0215745 -0.0106917 0
0.00894671 -0.0169193 0
-0.0146024 0.0320212 0
-0.0668218 0.0182755 0
0.119913 -0.017665 0
0.0072424 -0.00527245 0
-0.0171692 -0.00654404 0
-0.0870549 -0.00752268 0
-0.0215113 -0.0245873 0
0.109602 -0.0102829 0
-0.0181966 -0.00641968 0
-0.00168129 -0.00773513 0
-0.00973262 -0.051163 0
-0.060537 -0.052728 0
0.13597 -0.00427787 0
-0.0014964 -0.0144254 0
0.0104607 -0.0362271 0
0.0139539 -0.0154844 0
-0.0281214 -0.06032 0
0.0739444 -0.0593261 0
