# vtk DataFile Version 4.0
SiwiRVisFile
ASCII
DATASET STRUCTURED_POINTS
DIMENSIONS 5 5 1
ORIGIN 0 0 0
SPACING 1 1 1
POINT_DATA 25

SCALARS flags double 1
LOOKUP_TABLE default
1
1
1
1
1
1
1
1
1
1
1
1
1
1
1
1
1
1
1
1
1
1
1
1
1

SCALARS density double 1
LOOKUP_TABLE default
331.543
310.041
259.938
119.576
5.41957
309.996
443.209
347.375
112.519
2.04617
259.856
347.329
243.448
67.0824
3.45087
119.529
112.489
67.0768
17.0639
0.716589
5.41792
2.0449
3.45122
0.71673
-0.27473

VECTORS velocity double
-0.0174763 -0.0175044 0
-0.139106 -0.0206973 0
-0.0974505 0.0862433 0
-0.0108096 0.330444 0
0.852412 1 0
-0.0206623 -0.139137 0
-0.01738 -0.0174172 0
0.0129177 0.141927 0
-0.00015392 0.333456 0
-0.0572244 1 0
0.0862581 -0.0974727 0
0.141956 0.0128832 0
0.156709 0.156684 0
0.118406 0.332157 0
0.243524 1 0
0.330446 -0.0108104 0
0.333456 -0.00019518 0
0.332163 0.118384 0
0.323361 0.323376 0
0.618411 1 0
1 0.852593 0
1 -0.05711 0
1 0.243544 0
1 0.618188 0
1 1 0
