# vtk DataFile Version 4.0
SiwiRVisFile
ASCII
DATASET STRUCTURED_POINTS
DIMENSIONS 5 5 1
ORIGIN 0 0 0
SPACING 1 1 1
POINT_DATA 25

SCALARS flags double 1
LOOKUP_TABLE default
1
1
1
1
1
1
1
1
1
1
1
1
1
1
1
1
1
1
1
1
1
1
1
1
1

SCALARS density double 1
LOOKUP_TABLE default
0.97746
1.03704
1.00419
0.96057
1.01036
0.981722
1.03045
1.00422
0.965123
1.00606
1.029
0.94775
0.991594
1.05348
0.984173
1.00824
0.987025
0.995282
1.0128
1.00113
0.972331
1.06395
1.00337
0.940033
1.03265

VECTORS velocity double
-0.00245899 0.00266342 0
-0.000860487 -0.00268079 0
-0.00263457 0.00236618 0
-0.00590473 -0.00467473 0
-0.000679953 -0.00314361 0
0.000488287 0.00263569 0
-0.00530033 0.00176376 0
-0.0193316 0.011688 0
-0.0153089 -0.0038881 0
-0.00344175 -0.00613387 0
0.000835893 0.000310803 0
-0.0111599 0.030807 0
-0.0219328 0.00599294 0
-0.0130739 -0.0213962 0
-0.00173003 -0.0225499 0
-0.0118984 0.00418357 0
-0.00273686 0.0229103 0
7.07327e-005 0.00921319 0
-0.00310788 -0.0171718 0
-0.0031603 -0.0231119 0
0.0301536 0.0376718 0
0.0411573 0.00298981 0
0.0567597 0.00894542 0
0.047365 -0.0183079 0
0.0310724 -0.01573 0
