# vtk DataFile Version 4.0
SiwiRVisFile
ASCII
DATASET STRUCTURED_POINTS
DIMENSIONS 5 5 1
ORIGIN 0 0 0
SPACING 1 1 1
POINT_DATA 25

SCALARS flags double 1
LOOKUP_TABLE default
1
1
1
1
1
1
1
1
1
1
1
1
1
1
1
1
1
1
1
1
1
1
1
1
1

SCALARS density double 1
LOOKUP_TABLE default
326.456
305.356
255.914
117.68
5.34124
305.313
436.291
342.038
110.762
2.01996
255.836
341.995
239.678
66.0075
3.40149
117.635
110.733
66.0021
16.7698
0.713338
5.33967
2.01874
3.40182
0.713472
-0.268182

VECTORS velocity double
-0.0175185 -0.0175459 0
-0.138899 -0.0206478 0
-0.0974385 0.0863441 0
-0.0109646 0.330429 0
0.851622 1 0
-0.020614 -0.138928 0
-0.0174585 -0.0174945 0
0.0128794 0.141999 0
-9.74214e-005 0.333467 0
-0.057601 1 0
0.0863585 -0.0974599 0
0.142028 0.012846 0
0.156826 0.156801 0
0.118565 0.33212 0
0.244445 1 0
0.330432 -0.0109654 0
0.333467 -0.00013744 0
0.332126 0.118544 0
0.323278 0.323293 0
0.615247 1 0
1 0.851797 0
1 -0.0574903 0
1 0.244464 0
1 0.615034 0
1 1 0
