# vtk DataFile Version 4.0
SiwiRVisFile
ASCII
DATASET STRUCTURED_POINTS
DIMENSIONS 5 5 1
ORIGIN 0 0 0
SPACING 1 1 1
POINT_DATA 25

SCALARS flags double 1
LOOKUP_TABLE default
1
1
1
1
1
1
1
1
1
1
1
1
1
1
1
1
1
1
1
1
1
1
1
1
1

SCALARS density double 1
LOOKUP_TABLE default
0.977197
1.0368
1.00413
0.961094
1.01081
0.981392
1.03021
1.00406
0.965168
1.00671
1.02845
0.947476
0.991357
1.05337
0.984414
1.00722
0.987173
0.995092
1.0141
1.00168
0.97218
1.0639
1.0034
0.940384
1.03222

VECTORS velocity double
-0.000495581 0.00126933 0
-0.00194828 -0.0027706 0
-0.00153246 0.00410813 0
-0.00632912 0.00322598 0
-0.00158577 -0.000531067 0
0.00254832 0.00432398 0
-0.00569431 0.00231766 0
-0.0174159 0.00672913 0
-0.0187568 -0.00881673 0
-0.00198183 -0.0115304 0
0.00175262 -0.00108945 0
-0.0132041 0.0286438 0
-0.0202925 0.0122079 0
-0.0129098 -0.0185195 0
-0.00498497 -0.0140345 0
-0.00631362 0.0185095 0
-0.0105443 0.0300708 0
0.00600147 0.0118012 0
-0.00395676 -0.0270867 0
0.000180813 -0.0287724 0
0.0132569 -0.0121317 0
0.0433399 0.000183638 0
0.0536104 0.00578565 0
0.0631789 0.00323199 0
0.0156754 -0.0128554 0
