# vtk DataFile Version 4.0
SiwiRVisFile
ASCII
DATASET STRUCTURED_POINTS
DIMENSIONS 5 5 1
ORIGIN 0 0 0
SPACING 1 1 1
POINT_DATA 25

SCALARS flags double 1
LOOKUP_TABLE default
1
1
1
1
1
1
1
1
1
1
1
1
1
1
1
1
1
1
1
1
1
1
1
1
1

SCALARS density double 1
LOOKUP_TABLE default
323.941
303.035
253.925
116.741
5.30464
302.994
432.882
339.393
109.898
2.00605
253.848
339.351
237.818
65.4676
3.3776
116.697
109.87
65.4624
16.6254
0.711503
5.3031
2.00486
3.37792
0.711634
-0.264519

VECTORS velocity double
-0.0175394 -0.0175663 0
-0.138797 -0.0206243 0
-0.0974241 0.0863904 0
-0.0110186 0.330444 0
0.850966 1 0
-0.0205912 -0.138826 0
-0.0174955 -0.017531 0
0.0128692 0.142032 0
-9.70557e-005 0.333475 0
-0.0575332 1 0
0.0864047 -0.0974451 0
0.14206 0.0128363 0
0.156871 0.156847 0
0.118638 0.332131 0
0.24476 1 0
0.330446 -0.0110194 0
0.333475 -0.000136471 0
0.332137 0.118617 0
0.323443 0.323457 0
0.613746 1 0
1 0.851138 0
1 -0.0574241 0
1 0.24478 0
1 0.613538 0
1 1 0
