# vtk DataFile Version 4.0
SiwiRVisFile
ASCII
DATASET STRUCTURED_POINTS
DIMENSIONS 5 5 1
ORIGIN 0 0 0
SPACING 1 1 1
POINT_DATA 25

SCALARS flags double 1
LOOKUP_TABLE default
1
1
1
1
1
1
1
1
1
1
1
1
1
1
1
1
1
1
1
1
1
1
1
1
1

SCALARS density double 1
LOOKUP_TABLE default
321.444
300.731
251.946
115.813
5.26558
300.691
429.504
336.768
109.042
1.99155
251.872
336.727
235.958
64.9327
3.35385
115.77
109.014
64.9276
16.4883
0.708315
5.26407
1.99038
3.35416
0.708443
-0.262047

VECTORS velocity double
-0.0175544 -0.017581 0
-0.138701 -0.0206004 0
-0.0974099 0.086433 0
-0.0110718 0.330455 0
0.850933 1 0
-0.0205678 -0.138729 0
-0.0175312 -0.0175661 0
0.0128574 0.142065 0
-9.84964e-005 0.333487 0
-0.0574506 1 0
0.0864472 -0.0974306 0
0.142092 0.0128251 0
0.156921 0.156897 0
0.118726 0.332163 0
0.24534 1 0
0.330457 -0.0110725 0
0.333487 -0.000137317 0
0.332169 0.118705 0
0.323506 0.32352 0
0.613007 1 0
1 0.851103 0
1 -0.057343 0
1 0.245358 0
1 0.612803 0
1 1 0
