# vtk DataFile Version 4.0
SiwiRVisFile
ASCII
DATASET STRUCTURED_POINTS
DIMENSIONS 5 5 1
ORIGIN 0 0 0
SPACING 1 1 1
POINT_DATA 25

SCALARS flags double 1
LOOKUP_TABLE default
1
1
1
1
1
1
1
1
1
1
1
1
1
1
1
1
1
1
1
1
1
1
1
1
1

SCALARS density double 1
LOOKUP_TABLE default
0.997004
1.02324
1.00193
0.974286
1.00356
0.988584
1.02198
0.99966
0.978856
1.01086
1.011
0.960068
0.999525
1.0402
0.989189
1.01111
0.994317
0.997506
1.00545
0.987837
0.990284
1.03694
0.999309
0.961756
1.01554

VECTORS velocity double
-0.0014706 0.00430424 0
-0.00199221 -0.00304186 0
-0.000692278 -0.000295485 0
-0.00116938 0.00356823 0
-0.00108366 -0.00452595 0
0.00153323 0.00524244 0
-0.00734891 -0.00878575 0
-0.0113733 -0.00029797 0
-0.0067977 0.00820368 0
0.00188236 -0.00429667 0
0.00109747 -0.00412076 0
-0.0145044 0.0137082 0
-0.0323142 -0.000371786 0
-0.0136167 -0.0137898 0
0.000653099 0.00574818 0
-0.0110575 0.0101226 0
-0.0140536 0.0149899 0
-0.00573198 -0.000549188 0
-0.0152315 -0.015514 0
-0.0107881 -0.0109555 0
0.0287875 0.0110203 0
0.0415069 -0.000919589 0
0.0459922 0.000265501 0
0.0430842 -0.000418897 0
0.0311089 -0.012971 0
