# vtk DataFile Version 4.0
SiwiRVisFile
ASCII
DATASET STRUCTURED_POINTS
DIMENSIONS 5 5 1
ORIGIN 0 0 0
SPACING 1 1 1
POINT_DATA 25

SCALARS flags double 1
LOOKUP_TABLE default
1
1
1
1
1
1
1
1
1
1
1
1
1
1
1
1
1
1
1
1
1
1
1
1
1

SCALARS density double 1
LOOKUP_TABLE default
0.997669
1.02025
1.0009
0.978993
1.00237
0.983924
1.00898
1.00082
0.991308
1.01505
1.01059
0.963924
0.999445
1.03607
0.988808
1.01345
0.986635
0.998966
1.01036
0.986988
0.991392
1.03987
0.997855
0.96036
1.01503

VECTORS velocity double
-0.00234662 0.00109448 0
-0.00335582 -0.00462035 0
0.000459195 -0.00096637 0
-0.00296037 0.0056092 0
-0.00199705 -0.000963773 0
-0.000502972 -0.00225979 0
-0.00591715 -0.00581673 0
-0.0131698 -0.000455112 0
-0.00539634 0.00590188 0
0.00052443 0.00303123 0
0.00379707 -0.00329706 0
-0.0126021 0.0135119 0
-0.0255981 -0.000755016 0
-0.0121732 -0.0142358 0
0.0037836 0.00306465 0
-0.0140267 0.011844 0
-0.0160399 0.0148269 0
-0.0103151 -0.00054903 0
-0.0172079 -0.0151514 0
-0.0152308 -0.0105758 0
0.0198944 0.0172101 0
0.0421591 -6.55997e-006 0
0.0437617 0.000106679 0
0.0390855 0.00043561 0
0.0165586 -0.0153916 0
