# vtk DataFile Version 4.0
SiwiRVisFile
ASCII
DATASET STRUCTURED_POINTS
DIMENSIONS 5 5 1
ORIGIN 0 0 0
SPACING 1 1 1
POINT_DATA 25

SCALARS flags double 1
LOOKUP_TABLE default
1
1
1
1
1
1
1
1
1
1
1
1
1
1
1
1
1
1
1
1
1
1
1
1
1

SCALARS density double 1
LOOKUP_TABLE default
1
1
1
1
1
1
1
1
1
1
1
1
1
1
1
1.00767
1
1
1
0.99211
0.974113
1
1
1
1.02611

VECTORS velocity double
6.93889e-018 -6.93889e-018 0
6.93889e-018 -6.93889e-018 0
6.93889e-018 -6.93889e-018 0
6.93889e-018 -6.93889e-018 0
-6.93889e-018 -6.93889e-018 0
6.93889e-018 -6.93889e-018 0
6.93889e-018 -6.93889e-018 0
6.93889e-018 -6.93889e-018 0
6.93889e-018 -6.93889e-018 0
-6.93889e-018 -6.93889e-018 0
6.93889e-018 -6.93889e-018 0
6.93889e-018 -6.93889e-018 0
6.93889e-018 -6.93889e-018 0
6.93889e-018 -6.93889e-018 0
-6.93889e-018 -6.93889e-018 0
-0.00789037 -0.00766519 0
-0.0155556 -4.51028e-017 0
-0.0155556 -4.51028e-017 0
-0.0155556 -4.51028e-017 0
-0.00766519 0.00789037 0
0.0261126 0.00789037 0
0.052 -6.93889e-017 0
0.052 -6.93889e-017 0
0.052 -6.93889e-017 0
0.0258874 -0.00766519 0
