# vtk DataFile Version 4.0
SiwiRVisFile
ASCII
DATASET STRUCTURED_POINTS
DIMENSIONS 5 5 1
ORIGIN 0 0 0
SPACING 1 1 1
POINT_DATA 25

SCALARS flags double 1
LOOKUP_TABLE default
1
1
1
1
1
1
1
1
1
1
1
1
1
1
1
1
1
1
1
1
1
1
1
1
1

SCALARS density double 1
LOOKUP_TABLE default
0.9907
1.02917
1.00026
0.969736
1.01038
0.992457
1.02989
0.999724
0.970788
1.00672
1.02018
0.963563
0.998498
1.03798
0.979557
1.00586
0.99309
0.99822
1.00669
0.994293
0.984915
1.04214
1.00042
0.954942
1.01982

VECTORS velocity double
-0.000296431 0.00351763 0
-0.000431487 -0.00363912 0
0.00341683 0.00018587 0
0.00109441 0.00368252 0
-9.8176e-005 -0.00398127 0
-0.000478212 0.00724193 0
-0.00506709 -0.00805331 0
-0.00724369 0.000164087 0
-0.00450043 0.00700673 0
-9.97266e-005 -0.00651125 0
0.00027927 -0.00299091 0
-0.0156089 0.0144552 0
-0.0352286 -0.00040454 0
-0.0149813 -0.0156776 0
3.05574e-005 0.00392236 0
-0.00940092 0.00740449 0
-0.0134946 0.0152348 0
-0.0044092 -0.0010515 0
-0.0154019 -0.0149844 0
-0.00911876 -0.00595315 0
0.0215416 0.0149843 0
0.0440931 0.00370139 0
0.0401861 8.46554e-005 0
0.0413403 -0.00388144 0
0.0179615 -0.0134605 0
