# vtk DataFile Version 4.0
SiwiRVisFile
ASCII
DATASET STRUCTURED_POINTS
DIMENSIONS 50 50 1
ORIGIN 0 0 0
SPACING 1 1 1
POINT_DATA 2500

SCALARS flags double 1
LOOKUP_TABLE default
1
1
1
1
1
1
1
1
1
1
1
1
1
1
1
1
1
1
1
1
1
1
1
1
1
1
1
1
1
1
1
1
1
1
1
1
1
1
1
1
1
1
1
1
1
1
1
1
1
1
1
1
1
1
1
1
1
1
1
1
1
1
1
1
1
1
1
1
1
1
1
1
1
1
1
1
1
1
1
1
1
1
1
1
1
1
1
1
1
1
1
1
1
1
1
1
1
1
1
1
1
1
1
1
1
1
1
1
1
1
1
1
1
1
1
1
1
1
1
1
1
1
1
1
1
1
1
1
1
1
1
1
1
1
1
1
1
1
1
1
1
1
1
1
1
1
1
1
1
1
1
1
1
1
1
1
1
1
1
1
1
1
1
1
1
1
1
1
1
1
1
1
1
1
1
1
1
1
1
1
1
1
1
1
1
1
1
1
1
1
1
1
1
1
1
1
1
1
1
1
1
1
1
1
1
1
1
1
1
1
1
1
1
1
1
1
1
1
1
1
1
1
1
1
1
1
1
1
1
1
1
1
1
1
1
1
1
1
1
1
1
1
1
1
1
1
1
1
1
1
1
1
1
1
1
1
1
1
1
1
1
1
1
1
1
1
1
1
1
1
1
1
1
1
1
1
1
1
1
1
1
1
1
1
1
1
1
1
1
1
1
1
1
1
1
1
1
1
1
1
1
1
1
1
1
1
1
1
1
1
1
1
1
1
1
1
1
1
1
1
1
1
1
1
1
1
1
1
1
1
1
1
1
1
1
1
1
1
1
1
1
1
1
1
1
1
1
1
1
1
1
1
1
1
1
1
1
1
1
1
1
1
1
1
1
1
1
1
1
1
1
1
1
1
1
1
1
1
1
1
1
1
1
1
1
1
1
1
1
1
1
1
1
1
1
1
1
1
1
1
1
1
1
1
1
1
1
1
1
1
1
1
1
1
1
1
1
1
1
1
1
1
1
1
1
1
1
1
1
1
1
1
1
1
1
1
1
1
1
1
1
1
1
1
1
1
1
1
1
1
1
1
1
1
1
1
1
1
1
1
1
1
1
1
1
1
1
1
1
1
1
1
1
1
1
1
1
1
1
1
1
1
1
1
1
1
1
1
1
1
1
1
1
1
1
1
1
1
1
1
1
1
1
1
1
1
1
1
1
1
1
1
1
1
1
1
1
1
1
1
1
1
1
1
1
1
1
1
1
1
1
1
1
1
1
1
1
1
1
1
1
1
1
1
1
1
1
1
1
1
1
1
1
1
1
1
1
1
1
1
1
1
1
1
1
1
1
1
1
1
1
1
1
1
1
1
1
1
1
1
1
1
1
1
1
1
1
1
1
1
1
1
1
1
1
1
1
1
1
1
1
1
1
1
1
1
1
1
1
1
1
1
1
1
1
1
1
1
1
1
1
1
1
1
1
1
1
1
1
1
1
1
1
1
1
1
1
1
1
1
1
1
1
1
1
1
1
1
1
1
1
1
1
1
1
1
1
1
1
1
1
1
1
1
1
1
1
1
1
1
1
1
1
1
1
1
1
1
1
1
1
1
1
1
1
1
1
1
1
1
1
1
1
1
1
1
1
1
1
1
1
1
1
1
1
1
1
1
1
1
1
1
1
1
1
1
1
1
1
1
1
1
1
1
1
1
1
1
1
1
1
1
1
1
1
1
1
1
1
1
1
1
1
1
1
1
1
1
1
1
1
1
1
1
1
1
1
1
1
1
1
1
1
1
1
1
1
1
1
1
1
1
1
1
1
1
1
1
1
1
1
1
1
1
1
1
1
1
1
1
1
1
1
1
1
1
1
1
1
1
1
1
1
1
1
1
1
1
1
1
1
1
1
1
1
1
1
1
1
1
1
1
1
1
1
1
1
1
1
1
1
1
1
1
1
1
1
1
1
1
1
1
1
1
1
1
1
1
1
1
1
1
1
1
1
1
1
1
1
1
1
1
1
1
1
1
1
1
1
1
1
1
1
1
1
1
1
1
1
1
1
1
1
1
1
1
1
1
1
1
1
1
1
1
1
1
1
1
1
1
1
1
1
1
1
1
1
1
1
1
1
1
1
1
1
1
1
1
1
1
1
1
1
1
1
1
1
1
1
1
1
1
1
1
1
1
1
1
1
1
1
1
1
1
1
1
1
1
1
1
1
1
1
1
1
1
1
1
1
1
1
1
1
1
1
1
1
1
1
1
1
1
1
1
1
1
1
1
1
1
1
1
1
1
1
1
1
1
1
1
1
1
1
1
1
1
1
1
1
1
1
1
1
1
1
1
1
1
1
1
1
1
1
1
1
1
1
1
1
1
1
1
1
1
1
1
1
1
1
1
1
1
1
1
1
1
1
1
1
1
1
1
1
1
1
1
1
1
1
1
1
1
1
1
1
1
1
1
1
1
1
1
1
1
1
1
1
1
1
1
1
1
1
1
1
1
1
1
1
1
1
1
1
1
1
1
1
1
1
1
1
1
1
1
1
1
1
1
1
1
1
1
1
1
1
1
1
1
1
1
1
1
1
1
1
1
1
1
1
1
1
1
1
1
1
1
1
1
1
1
1
1
1
1
1
1
1
1
1
1
1
1
1
1
1
1
1
1
1
1
1
1
1
1
1
1
1
1
1
1
1
1
1
1
1
1
1
1
1
1
1
1
1
1
1
1
1
1
1
1
1
1
1
1
1
1
1
1
1
1
1
1
1
1
1
1
1
1
1
1
1
1
1
1
1
1
1
1
1
1
1
1
1
1
1
1
1
1
1
1
1
1
1
1
1
1
1
1
1
1
1
1
1
1
1
1
1
1
1
1
1
1
1
1
1
1
1
1
1
1
1
1
1
1
1
1
1
1
1
1
1
1
1
1
1
1
1
1
1
1
1
1
1
1
1
1
1
1
1
1
1
1
1
1
1
1
1
1
1
1
1
1
1
1
1
1
1
1
1
1
1
1
1
1
1
1
1
1
1
1
1
1
1
1
1
1
1
1
1
1
1
1
1
1
1
1
1
1
1
1
1
1
1
1
1
1
1
1
1
1
1
1
1
1
1
1
1
1
1
1
1
1
1
1
1
1
1
1
1
1
1
1
1
1
1
1
1
1
1
1
1
1
1
1
1
1
1
1
1
1
1
1
1
1
1
1
1
1
1
1
1
1
1
1
1
1
1
1
1
1
1
1
1
1
1
1
1
1
1
1
1
1
1
1
1
1
1
1
1
1
1
1
1
1
1
1
1
1
1
1
1
1
1
1
1
1
1
1
1
1
1
1
1
1
1
1
1
1
1
1
1
1
1
1
1
1
1
1
1
1
1
1
1
1
1
1
1
1
1
1
1
1
1
1
1
1
1
1
1
1
1
1
1
1
1
1
1
1
1
1
1
1
1
1
1
1
1
1
1
1
1
1
1
1
1
1
1
1
1
1
1
1
1
1
1
1
1
1
1
1
1
1
1
1
1
1
1
1
1
1
1
1
1
1
1
1
1
1
1
1
1
1
1
1
1
1
1
1
1
1
1
1
1
1
1
1
1
1
1
1
1
1
1
1
1
1
1
1
1
1
1
1
1
1
1
1
1
1
1
1
1
1
1
1
1
1
1
1
1
1
1
1
1
1
1
1
1
1
1
1
1
1
1
1
1
1
1
1
1
1
1
1
1
1
1
1
1
1
1
1
1
1
1
1
1
1
1
1
1
1
1
1
1
1
1
1
1
1
1
1
1
1
1
1
1
1
1
1
1
1
1
1
1
1
1
1
1
1
1
1
1
1
1
1
1
1
1
1
1
1
1
1
1
1
1
1
1
1
1
1
1
1
1
1
1
1
1
1
1
1
1
1
1
1
1
1
1
1
1
1
1
1
1
1
1
1
1
1
1
1
1
1
1
1
1
1
1
1
1
1
1
1
1
1
1
1
1
1
1
1
1
1
1
1
1
1
1
1
1
1
1
1
1
1
1
1
1
1
1
1
1
1
1
1
1
1
1
1
1
1
1
1
1
1
1
1
1
1
1
1
1
1
1
1
1
1
1
1
1
1
1
1
1
1
1
1
1
1
1
1
1
1
1
1
1
1
1
1
1
1
1
1
1
1
1
1
1
1
1
1
1
1
1
1
1
1
1
1
1
1
1
1
1
1
1
1
1
1
1
1
1
1
1
1
1
1
1
1
1
1
1
1
1
1
1
1
1
1
1
1
1
1
1
1
1
1
1
1
1
1
1
1
1
1
1
1
1
1
1
1
1
1
1
1
1
1
1
1
1
1
1
1
1
1
1
1
1
1
1
1
1
1
1
1
1
1
1
1
1
1
1
1
1
1
1
1
1
1
1
1
1
1
1
1
1
1
1
1
1
1
1
1
1
1
1
1
1
1
1
1
1
1
1
1
1
1
1
1
1
1
1
1
1
1
1
1
1
1
1
1
1
1
1
1
1
1
1
1
1
1
1
1
1
1
1
1
1
1
1
1
1
1
1
1
1
1
1
1
1
1
1
1
1
1
1
1
1
1
1
1
1
1
1
1
1
1
1
1
1
1
1
1
1
1
1
1
1
1
1
1
1
1
1
1
1
1
1
1
1
1
1
1
1
1
1
1
1
1
1
1
1
1
1
1
1
1
1
1
1
1
1
1
1
1
1
1
1
1
1
1
1
1
1
1
1
1
1
1
1
1
1
1
1
1
1
1
1
1
1
1
1
1
1
1
1
1
1
1
1
1
1
1
1
1
1
1
1
1
1
1
1
1
1
1
1
1
1
1
1
1
1
1
1
1
1
1
1
1
1
1
1
1
1
1
1
1
1
1
1
1
1
1
1
1
1
1
1
1
1
1
1
1
1
1
1
1
1
1
1
1
1
1
1
1
1
1
1
1
1
1
1
1
1
1
1
1
1
1
1
1
1
1
1
1
1
1
1
1
1
1
1
1
1
1
1
1
1
1
1
1
1
1
1
1
1
1
1
1
1
1
1
1
1
1
1
1
1
1
1
1
1
1
1
1
1
1
1
1
1
1
1
1
1
1
1
1
1
1
1
1
1
1
1
1
1
1
1
1
1
1
1
1
1
1
1
1
1
1
1
1
1
1
1
1
1
1
1
1
1
1
1
1
1
1
1
1
1
1
1
1
1
1
1
1
1
1
1
1
1
1
1
1
1
1
1
1
1
1
1
1
1
1
1
1
1
1
1
1
1
1
1
1
1
1
1
1
1
1
1
1
1
1
1
1
1
1
1
1
1
1
1
1
1
1
1
1
1
1
1
1
1
1
1
1
1
1
1
1
1
1
1
1
1
1
1
1
1
1
1
1
1
1
1
1
1
1
1
1
1
1
1
1
1
1
1
1
1
1
1
1
1
1
1
1
1
1
1
1
1
1
1
1
1
1
1
1
1
1
1
1
1
1
1
1
1
1
1
1
1
1
1
1
1
1
1
1
1
1
1
1
1
1
1
1
1
1
1
1
1
1
1
1
1
1
1
1
1
1
1
1
1
1
1
1
1
1
1
1
1
1
1
1
1
1
1
1
1
1
1
1
1
1
1
1
1
1
1
1
1
1
1
1
1
1
1
1
1
1
1
1
1
1
1
1
1
1
1
1
1
1
1
1
1
1
1
1
1
1
1
1
1
1
1
1
1
1
1
1
1
1
1
1
1
1
1
1
1
1
1
1

SCALARS density double 1
LOOKUP_TABLE default
1
1
1
1
1
1
1
1
1
1
1
1
1
1
1
1
1
1
1
1
1
1
1
1
1
1
1
1
1
1
1
1
1
1
1
1
1
1
1
1
1
1
1
1
1
1
1
1
1
1
1
1
1
1
1
1
1
1
1
1
1
1
1
1
1
1
1
1
1
1
1
1
1
1
1
1
1
1
1
1
1
1
1
1
1
1
1
1
1
1
1
1
1
1
1
1
1
1
1
1
1
1
1
1
1
1
1
1
1
1
1
1
1
1
1
1
1
1
1
1
1
1
1
1
1
1
1
1
1
1
1
1
1
1
1
1
1
1
1
1
1
1
1
1
1
1
1
1
1
1
1
1
1
1
1
1
1
1
1
1
1
1
1
1
1
1
1
1
1
1
1
1
1
1
1
1
1
1
1
1
1
1
1
1
1
1
1
1
1
1
1
1
1
1
1
1
1
1
1
1
1
1
1
1
1
1
1
1
1
1
1
1
1
1
1
1
1
1
1
1
1
1
1
1
1
1
1
1
1
1
1
1
1
1
1
1
1
1
1
1
1
1
1
1
1
1
1
1
1
1
1
1
1
1
1
1
1
1
1
1
1
1
1
1
1
1
1
1
1
1
1
1
1
1
1
1
1
1
1
1
1
1
1
1
1
1
1
1
1
1
1
1
1
1
1
1
1
1
1
1
1
1
1
1
1
1
1
1
1
1
1
1
1
1
1
1
1
1
1
1
1
1
1
1
1
1
1
1
1
1
1
1
1
1
1
1
1
1
1
1
1
1
1
1
1
1
1
1
1
1
1
1
1
1
1
1
1
1
1
1
1
1
1
1
1
1
1
1
1
1
1
1
1
1
1
1
1
1
1
1
1
1
1
1
1
1
1
1
1
1
1
1
1
1
1
1
1
1
1
1
1
1
1
1
1
1
1
1
1
1
1
1
1
1
1
1
1
1
1
1
1
1
1
1
1
1
1
1
1
1
1
1
1
1
1
1
1
1
1
1
1
1
1
1
1
1
1
1
1
1
1
1
1
1
1
1
1
1
1
1
1
1
1
1
1
1
1
1
1
1
1
1
1
1
1
1
1
1
1
1
1
1
1
1
1
1
1
1
1
1
1
1
1
1
1
1
1
1
1
1
1
1
1
1
1
1
1
1
1
1
1
1
1
1
1
1
1
1
1
1
1
1
1
1
1
1
1
1
1
1
1
1
1
1
1
1
1
1
1
1
1
1
1
1
1
1
1
1
1
1
1
1
1
1
1
1
1
1
1
1
1
1
1
1
1
1
1
1
1
1
1
1
1
1
1
1
1
1
1
1
1
1
1
1
1
1
1
1
1
1
1
1
1
1
1
1
1
1
1
1
1
1
1
1
1
1
1
1
1
1
1
1
1
1
1
1
1
1
1
1
1
1
1
1
1
1
1
1
1
1
1
1
1
1
1
1
1
1
1
1
1
1
1
1
1
1
1
1
1
1
1
1
1
1
1
1
1
1
1
1
1
1
1
1
1
1
1
1
1
1
1
1
1
1
1
1
1
1
1
1
1
1
1
1
1
1
1
1
1
1
1
1
1
1
1
1
1
1
1
1
1
1
1
1
1
1
1
1
1
1
1
1
1
1
1
1
1
1
1
1
1
1
1
1
1
1
1
1
1
1
1
1
1
1
1
1
1
1
1
1
1
1
1
1
1
1
1
1
1
1
1
1
1
1
1
1
1
1
1
1
1
1
1
1
1
1
1
1
1
1
1
1
1
1
1
1
1
1
1
1
1
1
1
1
1
1
1
1
1
1
1
1
1
1
1
1
1
1
1
1
1
1
1
1
1
1
1
1
1
1
1
1
1
1
1
1
1
1
1
1
1
1
1
1
1
1
1
1
1
1
1
1
1
1
1
1
1
1
1
1
1
1
1
1
1
1
1
1
1
1
1
1
1
1
1
1
1
1
1
1
1
1
1
1
1
1
1
1
1
1
1
1
1
1
1
1
1
1
1
1
1
1
1
1
1
1
1
1
1
1
1
1
1
1
1
1
1
1
1
1
1
1
1
1
1
1
1
1
1
1
1
1
1
1
1
1
1
1
1
1
1
1
1
1
1
1
1
1
1
1
1
1
1
1
1
1
1
1
1
1
1
1
1
1
1
1
1
1
1
1
1
1
1
1
1
1
1
1
1
1
1
1
1
1
1
1
1
1
1
1
1
1
1
1
1
1
1
1
1
1
1
1
1
1
1
1
1
1
1
1
1
1
1
1
1
1
1
1
1
1
1
1
1
1
1
1
1
1
1
1
1
1
1
1
1
1
1
1
1
1
1
1
1
1
1
1
1
1
1
1
1
1
1
1
1
1
1
1
1
1
1
1
1
1
1
1
1
1
1
1
1
1
1
1
1
1
1
1
1
1
1
1
1
1
1
1
1
1
1
1
0.999999
0.999999
0.999999
1
1
1
1
1
1
1
1
1
1
1
1
1
1
1
1
0.999999
0.999999
0.999999
0.999999
0.999999
0.999999
0.999999
0.999999
0.999999
0.999999
0.999999
0.999996
0.999999
0.999999
0.999998
0.999998
0.999998
0.999999
0.999999
0.999999
1
1
1
1
1
1
1
1
1
0.999999
0.999999
1
0.999999
0.999998
0.999998
0.999999
1
1
1
1
1
1
1
0.999998
0.999998
0.999998
0.999998
0.999998
0.999998
0.999998
0.999999
0.999999
0.999999
1
1
1
1
1
1
1
1
1
1.00001
1
1
0.999999
0.999999
0.999999
0.999998
0.999998
0.999998
0.999998
0.999999
0.999999
0.999999
1
1
0.999996
1
1.00001
1
0.999998
1
1
0.999998
0.999998
1
1
0.999998
0.999996
1
1
0.999991
0.999995
1
0.999999
0.999996
1
1
1
1
1
1
1
1
1
1
1
1
0.999994
1
1
0.999987
1
1
1
1
1
1
1
1
0.999997
0.999998
1
0.999981
0.999981
1.00002
0.999998
0.999971
1.00001
1.00002
0.999999
0.999998
1.00001
1.00001
1
0.999998
0.999991
0.999988
1
1
0.999978
0.999995
1.00003
1
0.999985
1.00002
1.00002
0.999998
1
1.00001
1
1
0.999998
0.999997
0.999997
0.999996
0.999997
0.999997
0.999994
0.999999
1.00001
0.999995
1
0.999996
0.999997
0.999996
0.999999
1
0.999994
1.00001
1.00001
0.999959
1.00001
1.00006
0.999942
0.999941
1.00007
1
0.999931
1.00001
1.00003
0.999988
0.999996
1.00002
1.00001
0.999989
0.999981
1.00001
1.00001
0.99997
0.999994
1.00007
0.999997
0.999936
1.00006
1.00005
0.999936
0.999986
1.00004
0.999983
0.999983
0.999999
0.999991
0.999995
0.999997
0.999997
0.999999
0.999995
1.00002
0.999992
0.999978
1
0.999984
0.999993
0.999993
0.999989
0.99998
1.00001
0.999974
0.999936
1.00009
1.00005
0.999837
1.00004
1.00021
0.999904
0.999908
1.00015
1.00001
0.999891
1.00002
1.00003
0.999973
0.999993
1.00001
0.999991
1.00001
1.00003
0.99997
0.999982
1.00011
0.999993
0.99985
1.00008
1.00009
0.999791
0.999958
1.00016
0.999948
0.999914
1.00007
1.00003
0.999995
1.00003
1.00002
1.00001
1.00001
1.00001
1.00002
1.00001
0.999977
1.00001
0.999997
0.999997
1.00001
1.00003
0.999948
1
1.00017
0.999883
0.999793
1.00026
1.00015
0.999654
1.00005
1.00032
0.999824
0.99988
1.00022
0.999993
0.999872
1.00003
1.00003
0.999971
0.999986
1.00001
1.00003
0.99997
0.999965
1.00013
1.00001
0.999772
1.00011
1.00018
0.999692
0.999948
1.00035
0.999858
0.999757
1.00021
1.00012
0.999845
1.00001
1.00005
0.999968
0.999996
0.999996
1.00001
0.99995
1.00003
0.999962
0.99992
1.00003
1.00002
0.999958
1.00013
1.00011
0.999721
1.00005
1.00047
0.99981
0.999592
1.00038
1.00016
0.999489
1.00005
1.00036
0.999712
0.999873
1.00026
0.999984
0.999879
1.00004
1.00003
0.999988
1.00001
0.999973
0.999954
1.00012
1.00003
0.999736
1.00011
1.00031
0.999659
0.999936
1.00051
0.99986
0.999623
1.00038
1.00017
0.999536
0.999938
1.00025
0.999869
0.999866
1.00003
0.999975
0.999995
1.00005
1.00007
0.999842
0.999831
0.999913
1.00009
0.999839
0.999709
1.00038
1.00021
0.999371
0.999993
1.00058
0.999716
0.9996
1.00042
1.00016
0.99943
1.0001
1.0004
0.999694
0.999884
1.00027
0.999968
0.999893
1.00003
1.00003
0.999974
0.99997
1.00011
1.00005
0.999733
1.00009
1.00032
0.999627
0.999859
1.00055
0.999868
0.999558
1.00035
1.00028
0.999451
1
1.0006
0.999804
0.999648
1.00029
1.00015
0.999937
1.00007
1.00021
1.00014
0.999551
0.999806
0.999485
0.999864
1.00041
0.999538
0.999418
1.00054
1.00018
0.999347
1.00011
1.00045
0.999698
0.999753
1.00043
1.00027
0.999483
1.00008
1.0004
0.999685
0.999906
1.00024
0.999969
0.99991
1
0.999997
1.00009
1.00004
0.999753
1.00006
1.00033
0.999626
0.999868
1.0005
0.999781
0.99956
1.00022
1.00032
0.999591
0.999896
1.00062
0.999845
0.999513
1.00054
1.00041
0.999618
1.00013
1.00047
1.00019
1.00042
0.999248
0.999994
0.999588
0.998843
0.99995
1.00062
0.999548
0.999674
1.00053
1.00005
0.999506
1.00026
1.0003
0.999884
0.999707
1.00026
1.00027
0.999483
1.00005
1.00038
0.999672
0.999936
1.00021
0.999972
0.999942
1.00006
1.00003
0.999788
1.00004
1.00035
0.999656
0.99989
1.00052
0.999813
0.999725
1.00027
1.00012
0.999726
0.999711
1.00043
0.999938
0.99947
1.00025
1.00035
0.999386
1.00007
1.00102
1.00041
0.999973
1.00073
0.999351
0.998752
0.999699
0.999299
0.998538
0.999717
1.0001
0.999489
0.999806
1.0004
1.00005
0.999582
1.00003
1
0.999914
0.999776
1.0002
1.00032
0.999439
1.00013
1.00033
0.999709
0.999957
1.00013
0.999994
1.00001
0.999868
1.00003
1.00032
0.999716
0.999794
1.00056
0.999762
0.999749
1.00017
1.00008
0.999984
0.999941
1.00036
0.999953
0.999593
1.00016
1.00045
0.999881
1.00027
1.00129
1.00054
1.00029
1.00112
1.00053
1.00008
0.996965
0.997597
0.998984
0.998244
0.998146
0.999219
0.999682
0.999534
0.999625
1.0001
1.00005
0.999755
1.00022
1.00005
0.999895
0.999789
1.00032
1.00029
0.999465
1.00019
1.00027
0.999766
0.999969
1.00006
0.999946
1.00002
1.00026
0.999764
0.999729
1.00051
0.99981
0.99963
1.00015
1.00012
0.999964
0.999772
1.00022
0.999998
0.999879
1.00038
1.00045
1.00022
1.00067
1.00163
1.00149
1.0008
1.00208
1.00251
0.999828
0.997216
0.997975
0.997796
0.997423
0.997704
0.998072
0.997905
0.998778
0.999292
0.999758
0.999711
1.00056
1.00011
0.999472
1.00044
0.999969
0.999927
0.999645
1.00035
1.00009
0.999519
1.00022
1.0002
0.999863
0.999984
1.00001
1.00014
0.999816
0.99972
1.00046
1.00003
0.999622
1.0003
1.00011
1.00008
0.999563
1.00045
0.999963
0.999401
1.00021
1.00016
1.00043
1.00095
1.0018
1.00148
1.00177
1.00206
1.00176
1.00115
1.00238
0.99572
0.998033
0.997815
0.996021
0.996859
0.997312
0.997206
0.997142
0.998866
0.998951
0.999111
0.999189
1.00055
1.00005
0.999479
1.00024
0.999992
0.99994
0.999758
1.00038
1.00002
0.999559
1.00019
1.0001
0.999961
1.00004
0.999915
0.999776
1.00044
1.00009
0.999579
1.00014
1.00011
1.00002
0.999695
1.00042
1.00004
0.999373
1.00063
1.00078
1.0008
1.00083
1.0024
1.0022
1.00198
1.00248
1.0031
1.00174
1.00118
1.00326
0.998315
0.995542
0.996309
0.99767
0.997131
0.996324
0.997024
0.996568
0.996482
0.998449
0.999016
0.999398
0.999139
1.0006
0.999969
0.999796
1.00016
1.00023
0.999858
0.999779
1.00049
0.999945
0.999704
1.0001
1.00003
0.999974
0.999894
1.00029
1.00014
0.999459
1.00009
1.00022
0.999814
0.999758
1.00012
1.00016
0.999311
1.00067
1.00065
1.00063
1.00115
1.00291
1.00288
1.00231
1.00304
1.00245
1.00142
1.00285
1.00397
1.00093
0.997927
0.996286
0.998306
1.00014
0.996908
0.996791
0.997273
0.998278
0.996792
0.99715
0.998774
0.998855
0.999582
0.999318
1.00064
1.00001
0.999481
1.00005
1.00019
0.999727
0.999783
1.00048
0.999915
0.999904
1.00002
0.999977
1.00009
1.00012
0.999481
1.00009
1.00039
0.999905
0.999846
1.00046
1.00013
0.99933
1.00051
1.00038
1.00067
1.00082
1.00232
1.00271
1.00113
1.00217
1.00256
1.00283
0.999794
1.00138
1.00318
1.002
0.995887
0.998752
0.99847
0.995943
0.997394
0.99847
0.997245
0.995179
0.997129
0.996142
0.996612
0.998579
0.998947
0.999305
0.999136
1.00054
1.00015
0.999671
1.00007
1.00034
0.999545
0.999902
1.00025
0.999984
0.999994
1
1.00003
0.999742
1.00002
1.00058
0.999772
0.999743
1.00023
0.999983
0.999383
1.00059
1.00061
1.00068
1.00107
1.00289
1.00328
1.00232
1.00421
1.00287
1.00127
1.00235
1.00385
1.0021
1.00066
1.00422
0.997101
0.997893
0.996058
0.9956
0.997409
0.999055
0.995953
0.996863
0.996933
0.997755
0.996397
0.997271
0.998894
0.999647
0.999665
0.999568
1.00047
1.00009
0.999715
1.00027
1.00035
0.999593
0.999949
1.00006
1.00001
0.999991
0.999944
1.00002
1.00046
0.999729
0.999515
1.00019
1.00008
0.99951
1.00021
1.00035
1.00011
1.00067
1.0022
1.00313
1.00202
1.00264
1.00282
1.00365
1.00124
1.00231
1.00359
1.00427
1.00196
1.00229
0.997899
0.994888
0.995746
1.00007
0.996462
0.996188
0.99867
0.999861
0.996807
0.995169
0.998177
0.99656
0.997678
0.999039
0.99984
0.999387
0.999582
1.00008
0.999968
0.999475
1.00039
1.00021
0.999852
0.999981
1.00001
0.999992
1.00002
1.00016
0.999825
0.999448
1.00048
1.00028
0.999884
1.00022
1.00062
0.999951
1.00054
1.00195
1.00314
1.00153
1.00406
1.00343
1.00051
1.00112
1.00334
1.00368
0.999493
1.00374
1.00509
1.00236
0.996685
0.996595
0.997062
0.996569
0.996866
0.997435
0.997294
0.996933
0.995693
0.996921
0.995463
0.997056
0.996685
0.997479
0.999555
1.0002
1.00001
0.999751
1.00046
0.999819
0.999567
1.00023
1.00008
0.999988
1
0.999999
1.00001
0.999932
0.999716
1.00041
1.00043
0.999459
0.999953
0.999994
0.999723
1
1.00204
1.00298
1.00262
1.00422
1.00317
1.00417
1.00345
1.00262
1.00242
1.00368
1.00394
1.00313
1.00354
1.0043
0.994913
1.00213
0.997063
0.994654
0.995628
1.00038
0.994448
0.995189
1.00047
0.998686
0.99587
0.996275
0.998254
0.998491
0.998324
0.99978
1.00021
0.999857
0.999845
1.00058
0.999763
0.999789
1.00002
1.00001
1
0.999999
0.999992
0.999966
1.0002
1.00036
0.999334
0.999824
1.00026
0.999883
0.999845
1.00127
1.00143
1.00147
1.00327
1.00432
1.00201
0.99965
1.00406
1.00552
0.99991
1.00446
1.0057
1.00349
0.998239
1.00495
0.996879
0.995381
0.993564
0.997788
0.995736
0.995746
0.996978
0.9973
0.996489
0.995203
0.996357
0.996674
0.995383
0.997504
0.998262
0.998778
0.999577
1.00026
0.999381
1.00008
1.00038
0.999974
0.999964
0.999991
0.999996
1
1.00001
1.00003
1.00006
0.999582
0.999686
1.00078
0.999916
0.999995
1.00086
1.00163
1.00213
1.00448
1.00386
1.00357
1.00454
1.00356
1.00241
1.00296
1.00488
1.00461
1.00177
1.00685
1.00547
1.00287
1.00046
0.993738
0.996149
1.00205
0.997096
0.995903
0.997814
1.00097
0.996165
0.996502
0.999915
0.997164
0.995452
0.997353
0.999886
1.00001
0.999611
1.00035
1.0002
0.999482
1
1.0001
1.00003
1
0.999995
1.00001
1
0.999971
0.999897
0.999933
1.00062
1.00001
0.99923
1.00009
1.00007
0.999917
1.00212
1.00471
1.00366
1.00066
1.0029
1.00428
0.99972
1.00187
1.00434
1.00329
0.999004
1.00418
1.00661
1.00048
0.989213
0.999151
0.994457
0.993403
0.994727
0.997703
0.994082
0.994054
0.996736
0.99637
0.994248
0.994747
0.996345
0.996112
0.996442
0.99879
0.999634
0.999435
1.00045
1.00004
0.999789
0.999926
1
0.999999
0.999993
1.00001
1
0.999995
1.00007
1.00024
1.00003
0.999188
1.00023
1.0005
1.00077
1.00325
1.00449
1.00419
1.00529
1.00598
1.00395
1.00331
1.00605
1.00599
1.00233
1.00514
1.00678
1.00553
1.00002
1.01223
0.997189
0.998887
0.995809
0.994662
0.99759
1.00088
0.996227
0.997482
0.999606
0.998285
0.996809
0.998599
0.999093
0.997546
0.99829
0.99975
1.00081
0.999867
0.999894
1.00037
1.00016
0.999998
1.00001
1
0.999992
1.00001
1
0.999991
1.00001
0.999845
0.999514
0.999943
1.00047
0.999087
0.999661
1.00179
1.00318
1.00138
1.00127
1.00331
1.00218
1.0003
1.00261
1.0045
1.00009
1.0024
1.00589
1.00437
1.0025
1.00291
0.996595
0.992318
0.99208
1.00326
0.99342
0.991529
0.99726
0.997938
0.994411
0.99284
0.997761
0.996263
0.992818
0.994841
0.99809
0.997668
0.998696
0.999856
0.999482
0.999741
0.999978
1.00001
0.999996
1.00001
0.999992
1.00001
0.999992
1
0.999984
0.999999
1.00022
1.00064
0.999961
1.00072
1.00297
1.00266
1.0055
1.00844
1.00539
1.00188
1.00622
1.00588
1.00223
1.00241
1.00814
1.00714
0.996867
1.00845
1.00844
1.00193
0.993974
0.992395
0.994775
0.999061
0.993565
0.995662
0.999422
0.999036
0.996332
0.997869
0.997889
0.996243
0.997218
0.998749
0.999449
0.999317
0.999859
1.00105
1.00073
1.00018
0.999969
1.00002
0.999975
1.00003
0.999963
1.00004
0.999968
1.00003
0.999969
1.00002
0.999838
0.999237
0.998392
0.999655
1.00112
1.00112
1.00199
1.00363
1.00452
1.00192
1.00105
1.00398
1.00265
1.00126
1.00443
1.00716
1.001
1.00523
1.00787
1.00794
0.988968
1.00569
0.995025
0.990236
0.997263
1.00042
0.996464
0.994716
0.99912
0.997036
0.993254
0.994612
0.997351
0.996532
0.99641
0.99958
0.999973
0.999218
0.999649
1
1.00002
1.00003
0.999985
1.00002
0.999988
1.00001
0.999979
1.00002
0.999959
0.999964
0.999929
1.00031
1.00115
1.00027
0.999741
1.00437
1.00546
1.00356
1.00576
1.00762
1.00284
0.999646
1.00579
1.00459
0.998023
1.00356
1.01193
1.0034
0.994264
1.02354

VECTORS velocity double
1.73472e-017 1.31839e-016 0
9.71445e-017 2.42861e-017 0
1.00614e-016 1.38778e-017 0
6.93889e-018 7.63278e-017 0
9.36751e-017 1.2837e-016 0
1.73472e-017 -6.59195e-017 0
6.93889e-018 1.07553e-016 0
5.89806e-017 1.59595e-016 0
-5.55112e-017 9.71445e-017 0
-1.63064e-016 9.02056e-017 0
-1.2837e-016 -4.16334e-017 0
4.16334e-017 2.08167e-017 0
-5.20417e-017 1.38778e-017 0
6.59195e-017 8.32667e-017 0
-1.42247e-016 -7.97973e-017 0
-1.21431e-016 6.59195e-017 0
-1.73472e-017 -3.1225e-017 0
-5.55112e-017 2.08167e-017 0
1.38778e-017 1.11022e-016 0
0 6.245e-017 0
-2.08167e-017 1.38778e-016 0
-5.89806e-017 8.67362e-017 0
1.04083e-017 1.04083e-016 0
-9.02056e-017 1.52656e-016 0
-7.28584e-017 1.52656e-016 0
-1.11022e-016 9.71445e-017 0
-4.51028e-017 2.18575e-016 0
1.38778e-017 1.14492e-016 0
-7.63278e-017 1.31839e-016 0
-1.66533e-016 1.63064e-016 0
-1.56125e-016 -3.46945e-018 0
-5.89806e-017 7.28584e-017 0
-1.14492e-016 3.1225e-017 0
-6.93889e-017 1.249e-016 0
-5.55112e-017 1.59595e-016 0
-2.77556e-017 1.49186e-016 0
-3.81639e-017 1.38778e-017 0
1.04083e-017 -1.38778e-016 0
7.97973e-017 -3.1225e-017 0
-1.00614e-016 -6.93889e-017 0
-9.02056e-017 -7.63278e-017 0
-3.1225e-017 3.46945e-018 0
6.93889e-017 -2.77556e-017 0
6.93889e-018 9.71445e-017 0
1.52656e-016 2.77556e-017 0
-3.46945e-017 1.56125e-016 0
-1.2837e-016 2.77556e-017 0
6.245e-017 2.42861e-017 0
-6.245e-017 4.51028e-017 0
2.42861e-017 1.73472e-017 0
-4.16334e-017 1.249e-016 0
-1.73472e-017 5.20417e-017 0
7.97973e-017 -8.32667e-017 0
-1.73472e-017 6.245e-017 0
6.245e-017 5.55112e-017 0
7.28584e-017 -9.36751e-017 0
5.89806e-017 -2.04697e-016 0
5.55112e-017 -4.85723e-017 0
-4.85723e-017 -1.04083e-016 0
1.45717e-016 6.93889e-017 0
4.51028e-017 -1.80411e-016 0
1.07553e-016 -9.36751e-017 0
-6.93889e-018 0 0
-7.97973e-017 -6.59195e-017 0
8.67362e-017 -1.21431e-016 0
7.63278e-017 1.31839e-016 0
-2.08167e-017 2.77556e-017 0
-3.1225e-017 -1.21431e-016 0
3.1225e-017 -3.81639e-017 0
2.42861e-017 -7.63278e-017 0
6.245e-017 -7.63278e-017 0
2.42861e-017 -1.59595e-016 0
-6.93889e-018 -9.71445e-017 0
-3.46945e-018 -1.17961e-016 0
0 -1.17961e-016 0
1.04083e-017 -2.08167e-016 0
5.89806e-017 -1.17961e-016 0
8.67362e-017 -1.49186e-016 0
2.42861e-017 -6.245e-017 0
-6.245e-017 -1.04083e-016 0
-1.38778e-017 -3.46945e-017 0
-4.51028e-017 2.42861e-017 0
-1.11022e-016 -2.77556e-017 0
-1.66533e-016 -1.249e-016 0
-3.46945e-017 1.38778e-016 0
3.46945e-018 -4.85723e-017 0
-6.93889e-018 4.85723e-017 0
2.77556e-017 6.93889e-017 0
9.36751e-017 7.28584e-017 0
6.59195e-017 5.55112e-017 0
-6.93889e-018 6.93889e-017 0
-2.01228e-016 -2.08167e-017 0
-2.60209e-016 -3.46945e-017 0
-2.08167e-017 -4.16334e-017 0
1.35308e-016 -1.04083e-017 0
6.245e-017 2.28983e-016 0
-1.00614e-016 -3.46945e-017 0
-2.08167e-017 1.31839e-016 0
1.56125e-016 4.16334e-017 0
1.21431e-016 -8.32667e-017 0
1.31839e-016 -2.08167e-017 0
-1.00614e-016 1.38778e-017 0
-2.42861e-017 4.51028e-017 0
1.80411e-016 -6.93889e-018 0
1.9082e-016 1.04083e-017 0
6.59195e-017 -3.46945e-018 0
-6.93889e-018 -2.77556e-017 0
-1.11022e-016 -8.32667e-017 0
-4.85723e-017 -9.36751e-017 0
-4.85723e-017 4.16334e-017 0
-4.51028e-017 9.02056e-017 0
2.42861e-017 -1.73472e-017 0
1.73472e-017 4.85723e-017 0
-4.16334e-017 -4.85723e-017 0
-8.67362e-017 7.97973e-017 0
0 2.77556e-017 0
-1.73472e-017 1.04083e-017 0
6.93889e-018 1.11022e-016 0
5.20417e-017 1.17961e-016 0
-6.245e-017 4.16334e-017 0
-2.08167e-017 6.93889e-018 0
-3.1225e-017 -2.42861e-017 0
3.81639e-017 1.56125e-016 0
9.02056e-017 1.42247e-016 0
-3.1225e-017 1.83881e-016 0
3.81639e-017 1.94289e-016 0
-2.08167e-017 1.45717e-016 0
1.21431e-016 3.29597e-016 0
7.28584e-017 9.36751e-017 0
-2.42861e-017 1.2837e-016 0
2.08167e-017 5.55112e-017 0
-3.46945e-017 2.42861e-017 0
-7.97973e-017 -1.00614e-016 0
-3.46945e-018 9.02056e-017 0
-1.70003e-016 6.245e-017 0
-5.20417e-017 9.71445e-017 0
6.245e-017 0 0
2.08167e-017 -3.1225e-017 0
1.249e-016 -2.08167e-017 0
-1.49186e-016 -8.32667e-017 0
-6.245e-017 -2.77556e-017 0
-1.38778e-017 -3.1225e-017 0
-9.36751e-017 6.93889e-018 0
2.11636e-016 4.85723e-017 0
1.249e-016 1.11022e-016 0
2.15106e-016 1.21431e-016 0
-6.245e-017 2.60209e-016 0
5.20417e-017 1.2837e-016 0
2.42861e-017 -1.38778e-017 0
7.63278e-017 9.71445e-017 0
-4.85723e-017 -4.85723e-017 0
-6.59195e-017 0 0
2.77556e-017 2.08167e-016 0
8.32667e-017 5.89806e-017 0
-3.1225e-017 3.1225e-017 0
3.46945e-017 -1.38778e-017 0
-2.77556e-017 -2.11636e-016 0
-5.20417e-017 3.1225e-017 0
3.46945e-018 -1.14492e-016 0
8.67362e-017 1.63064e-016 0
6.93889e-018 -3.1225e-017 0
-3.46945e-017 -5.20417e-017 0
5.20417e-017 -1.52656e-016 0
5.55112e-017 1.38778e-017 0
-7.63278e-017 -9.71445e-017 0
-1.14492e-016 6.93889e-018 0
1.04083e-016 -2.77556e-017 0
1.38778e-017 5.55112e-017 0
9.71445e-017 -6.93889e-018 0
9.36751e-017 -1.63064e-016 0
2.77556e-017 -1.73472e-016 0
1.11022e-016 -1.38778e-016 0
9.71445e-017 -1.73472e-017 0
1.21431e-016 -1.2837e-016 0
1.14492e-016 6.93889e-018 0
9.36751e-017 -7.28584e-017 0
1.2837e-016 -1.04083e-016 0
1.73472e-016 2.77556e-017 0
1.63064e-016 -4.85723e-017 0
2.08167e-016 5.20417e-017 0
1.76942e-016 2.04697e-016 0
8.67362e-017 2.77556e-017 0
9.36751e-017 -5.20417e-017 0
9.36751e-017 -3.46945e-018 0
6.245e-017 -6.93889e-018 0
1.2837e-016 1.249e-016 0
5.89806e-017 1.9082e-016 0
6.245e-017 -1.73472e-017 0
-8.32667e-017 1.73472e-016 0
6.245e-017 2.08167e-017 0
3.1225e-017 1.00614e-016 0
1.00614e-016 3.1225e-017 0
1.00614e-016 -3.1225e-017 0
1.07553e-016 1.21431e-016 0
7.97973e-017 -1.38778e-017 0
-2.08167e-017 -1.38778e-017 0
6.93889e-018 -1.2837e-016 0
3.81639e-017 1.04083e-017 0
7.28584e-017 -1.59595e-016 0
1.83881e-016 -3.1225e-017 0
3.1225e-017 3.81639e-017 0
7.28584e-017 7.28584e-017 0
3.46945e-017 2.77556e-017 0
7.63278e-017 1.63064e-016 0
-1.04083e-017 -6.245e-017 0
-1.04083e-017 -1.45717e-016 0
1.45717e-016 -7.97973e-017 0
1.04083e-017 -2.35922e-016 0
-1.66533e-016 -2.28983e-016 0
-3.1225e-017 -6.93889e-018 0
3.81639e-017 -3.81639e-017 0
2.08167e-017 -5.55112e-017 0
-3.46945e-018 -2.77556e-017 0
6.93889e-018 -3.46945e-017 0
-1.38778e-017 6.93889e-017 0
1.04083e-016 -2.77556e-017 0
4.85723e-017 1.59595e-016 0
-4.51028e-017 -5.89806e-017 0
8.67362e-017 -3.81639e-017 0
8.67362e-017 -4.51028e-017 0
7.97973e-017 -2.08167e-017 0
1.31839e-016 -7.63278e-017 0
1.04083e-017 3.46945e-017 0
6.93889e-017 4.16334e-017 0
4.51028e-017 2.77556e-017 0
1.38778e-017 -2.08167e-017 0
1.31839e-016 7.28584e-017 0
3.81639e-017 -4.85723e-017 0
6.93889e-017 1.07553e-016 0
1.17961e-016 1.73472e-017 0
8.32667e-017 0 0
-7.63278e-017 -4.16334e-017 0
-7.63278e-017 -1.80411e-016 0
1.38778e-017 -2.77556e-017 0
-3.81639e-017 1.21431e-016 0
2.01228e-016 0 0
-3.1225e-017 -9.71445e-017 0
-8.32667e-017 6.93889e-018 0
4.85723e-017 -1.42247e-016 0
-8.32667e-017 1.73472e-017 0
-2.77556e-017 -1.31839e-016 0
-6.93889e-018 -1.94289e-016 0
1.14492e-016 -1.07553e-016 0
2.60209e-016 2.15106e-016 0
1.249e-016 1.8735e-016 0
5.89806e-017 1.04083e-017 0
-4.16334e-017 -5.20417e-017 0
-6.93889e-017 4.51028e-017 0
2.77556e-017 -6.245e-017 0
6.59195e-017 -2.08167e-017 0
-4.85723e-017 -9.36751e-017 0
-3.46945e-017 -1.11022e-016 0
-7.28584e-017 6.245e-017 0
-7.97973e-017 -2.42861e-017 0
-4.85723e-017 -6.93889e-018 0
-2.42861e-017 -6.93889e-018 0
7.97973e-017 1.17961e-016 0
1.04083e-017 4.85723e-017 0
5.55112e-017 1.04083e-016 0
-1.04083e-017 9.71445e-017 0
6.93889e-018 5.89806e-017 0
-6.245e-017 -1.38778e-017 0
8.32667e-017 6.245e-017 0
1.38778e-017 -8.67362e-017 0
6.93889e-018 1.04083e-016 0
3.81639e-017 3.46945e-018 0
1.73472e-017 0 0
3.81639e-017 1.04083e-016 0
-1.38778e-017 -2.08167e-017 0
6.59195e-017 3.81639e-017 0
6.93889e-017 2.08167e-017 0
1.38778e-017 3.46945e-017 0
-4.16334e-017 -4.85723e-017 0
-4.85723e-017 2.42861e-017 0
-7.97973e-017 7.63278e-017 0
-3.46945e-018 1.35308e-016 0
9.02056e-017 1.249e-016 0
1.07553e-016 -1.04083e-017 0
1.21431e-016 6.93889e-018 0
6.245e-017 1.17961e-016 0
-7.63278e-017 -7.63278e-017 0
-5.20417e-017 -3.46945e-017 0
4.16334e-017 7.97973e-017 0
1.35308e-016 1.52656e-016 0
-7.97973e-017 2.32453e-016 0
-1.38778e-017 5.55112e-017 0
-2.08167e-017 2.08167e-017 0
-1.04083e-016 1.04083e-016 0
-4.85723e-017 1.80411e-016 0
1.38778e-016 1.249e-016 0
1.00614e-016 1.56125e-016 0
6.93889e-017 0 0
8.32667e-017 2.42861e-017 0
-6.245e-017 -1.38778e-017 0
-1.38778e-016 1.38778e-017 0
8.32667e-017 -2.56739e-016 0
1.14492e-016 -4.51028e-017 0
-3.81639e-017 7.63278e-017 0
-1.56125e-016 1.04083e-017 0
1.04083e-017 -3.46945e-018 0
-5.89806e-017 3.1225e-017 0
1.38778e-016 -4.16334e-017 0
3.1225e-017 1.73472e-017 0
-3.1225e-017 3.81639e-017 0
1.04083e-017 1.70003e-016 0
-3.81639e-017 6.93889e-018 0
-4.16334e-017 2.77556e-017 0
-1.14492e-016 -6.93889e-017 0
2.42861e-017 -1.2837e-016 0
-7.63278e-017 -1.2837e-016 0
-2.42861e-017 -2.77556e-017 0
2.42861e-017 -1.2837e-016 0
-1.73472e-017 -4.16334e-017 0
3.46945e-017 -1.59595e-016 0
-2.08167e-017 -3.1225e-017 0
5.55112e-017 -2.08167e-017 0
1.42247e-016 -6.245e-017 0
3.81639e-017 -1.249e-016 0
4.85723e-017 -2.42861e-017 0
6.245e-017 2.08167e-017 0
5.89806e-017 3.46945e-017 0
3.46945e-017 -5.20417e-017 0
-1.38778e-017 -2.77556e-017 0
4.51028e-017 -4.85723e-017 0
-2.77556e-017 3.46945e-017 0
5.55112e-017 4.85723e-017 0
7.97973e-017 4.85723e-017 0
5.20417e-017 -8.32667e-017 0
-3.1225e-017 -1.66533e-016 0
5.55112e-017 -1.66533e-016 0
0 4.85723e-017 0
-5.55112e-017 -7.28584e-017 0
0 -4.16334e-017 0
-7.28584e-017 -1.80411e-016 0
-1.17961e-016 3.1225e-017 0
-3.46945e-018 -3.81639e-017 0
3.46945e-017 -4.85723e-017 0
-4.85723e-017 -3.46945e-017 0
-2.22045e-016 -2.77556e-017 0
-7.28584e-017 -7.97973e-017 0
-6.245e-017 -1.83881e-016 0
7.63278e-017 -1.45717e-016 0
1.04083e-016 -9.36751e-017 0
4.85723e-017 -3.05311e-016 0
-1.70003e-016 -1.42247e-016 0
-8.32667e-017 -1.04083e-016 0
8.32667e-017 -1.63064e-016 0
1.42247e-016 -1.80411e-016 0
1.00614e-016 -7.63278e-017 0
-2.08167e-017 3.46945e-017 0
-9.36751e-017 1.31839e-016 0
1.63064e-016 -6.59195e-017 0
5.20417e-017 2.08167e-017 0
-1.38778e-017 1.49186e-016 0
-4.85723e-017 7.28584e-017 0
4.51028e-017 1.249e-016 0
-3.81639e-017 -2.08167e-017 0
1.73472e-017 7.97973e-017 0
-1.73472e-017 6.93889e-017 0
5.89806e-017 -6.59195e-017 0
3.1225e-017 3.46945e-017 0
1.49186e-016 7.28584e-017 0
-3.81639e-017 -7.97973e-017 0
-1.73472e-017 2.77556e-017 0
9.36751e-017 3.46945e-018 0
8.67362e-017 1.38778e-016 0
6.59195e-017 -1.38778e-016 0
5.89806e-017 -5.89806e-017 0
4.51028e-017 -1.52656e-016 0
6.93889e-018 6.93889e-018 0
7.28584e-017 -1.21431e-016 0
5.55112e-017 -2.08167e-017 0
6.93889e-017 2.08167e-017 0
8.67362e-017 3.46945e-018 0
7.28584e-017 9.02056e-017 0
1.80411e-016 1.59595e-016 0
1.14492e-016 1.52656e-016 0
6.93889e-018 1.8735e-016 0
6.245e-017 7.97973e-017 0
5.20417e-017 -4.51028e-017 0
1.35308e-016 -9.02056e-017 0
2.28983e-016 -8.32667e-017 0
1.04083e-016 2.77556e-017 0
3.1225e-017 6.93889e-017 0
6.245e-017 -4.51028e-017 0
-5.55112e-017 6.245e-017 0
9.02056e-017 3.81639e-017 0
6.59195e-017 2.11636e-016 0
-9.36751e-017 5.89806e-017 0
3.81639e-017 1.14492e-016 0
-3.46945e-018 1.70003e-016 0
4.85723e-017 7.28584e-017 0
-1.31839e-016 1.66533e-016 0
1.14492e-016 2.08167e-017 0
-1.21431e-016 3.46945e-018 0
0 -2.77556e-017 0
-2.08167e-017 6.93889e-018 0