# vtk DataFile Version 4.0
SiwiRVisFile
ASCII
DATASET STRUCTURED_POINTS
DIMENSIONS 5 5 1
ORIGIN 0 0 0
SPACING 1 1 1
POINT_DATA 25

SCALARS flags double 1
LOOKUP_TABLE default
1
1
1
1
1
1
1
1
1
1
1
1
1
1
1
1
1
1
1
1
1
1
1
1
1

SCALARS density double 1
LOOKUP_TABLE default
0.985677
1.02965
0.999564
0.971756
1.01357
0.987831
1.02963
1.00091
0.971625
1.01074
1.01799
0.949327
0.999236
1.04983
0.980278
0.994429
0.983966
0.998697
1.01442
1.00645
0.972602
1.05205
0.999651
0.946518
1.03361

VECTORS velocity double
-0.000779814 0.00202419 0
-0.00164857 -0.00262683 0
0.00342913 -0.000796029 0
-0.000477019 0.00318684 0
-0.00095549 -0.00174558 0
-0.000237719 0.00427785 0
-0.00552904 -0.000496792 0
-0.0115981 -0.000749877 0
-0.00622347 -0.000203765 0
0.000215192 -0.00298567 0
-0.00159617 0.0013594 0
-0.0110615 0.0167888 0
-0.0148345 0.000118255 0
-0.011762 -0.0165055 0
-0.00292303 0.000306444 0
-0.00885625 0.0143856 0
-0.0149172 0.0174992 0
-0.00861462 -0.000266403 0
-0.0161353 -0.0161286 0
-0.00771638 -0.0165926 0
0.0229504 0.0113436 0
0.0416621 0.00115491 0
0.0481041 0.00024618 0
0.0437962 -0.00179752 0
0.0277841 -0.0143182 0
