# vtk DataFile Version 4.0
SiwiRVisFile
ASCII
DATASET STRUCTURED_POINTS
DIMENSIONS 5 5 1
ORIGIN 0 0 0
SPACING 1 1 1
POINT_DATA 25

SCALARS flags double 1
LOOKUP_TABLE default
1
1
1
1
1
1
1
1
1
1
1
1
1
1
1
1
1
1
1
1
1
1
1
1
1

SCALARS density double 1
LOOKUP_TABLE default
0.981699
1.03477
0.999712
0.965309
1.01863
0.98859
1.02987
1.00047
0.969307
1.01031
1.02072
0.9556
0.999247
1.04381
0.978672
1.00395
0.987673
0.999439
1.01106
0.996082
0.973285
1.05928
0.998767
0.941364
1.03239

VECTORS velocity double
-0.00146858 0.00203365 0
-0.00133942 -0.00288412 0
0.0042849 -0.000656835 0
-0.000414665 0.00340576 0
-0.00152212 -0.00227029 0
5.00384e-005 0.00389646 0
-0.00602241 -0.00190335 0
-0.0120587 -0.000408739 0
-0.00576888 0.00131183 0
0.000927818 -0.00297574 0
-0.000754778 0.00322292 0
-0.0123422 0.0172426 0
-0.0211076 -0.000958081 0
-0.0123782 -0.0181816 0
-0.00119493 -0.00372859 0
-0.00802689 0.0149659 0
-0.0133267 0.0173659 0
-0.00746101 -0.000616495 0
-0.0135617 -0.0170267 0
-0.00939325 -0.0138469 0
0.0215519 0.0163373 0
0.0457484 0.00408453 0
0.044361 -0.000500536 0
0.0451782 -0.00255138 0
0.0175847 -0.0138331 0
