# vtk DataFile Version 4.0
SiwiRVisFile
ASCII
DATASET STRUCTURED_POINTS
DIMENSIONS 5 5 1
ORIGIN 0 0 0
SPACING 1 1 1
POINT_DATA 25

SCALARS flags double 1
LOOKUP_TABLE default
1
1
1
1
1
1
1
1
1
1
1
1
1
1
1
1
1
1
1
1
1
1
1
1
1

SCALARS density double 1
LOOKUP_TABLE default
0.983339
1.03759
1.00022
0.961822
1.01796
0.987572
1.03127
1.00035
0.970183
1.01185
1.01893
0.950308
0.999313
1.04991
0.980174
1.00281
0.984582
0.998212
1.01369
0.997401
0.973646
1.0565
0.998687
0.942574
1.0311

VECTORS velocity double
-0.00185378 0.00224233 0
-0.00203726 -0.00253819 0
0.00243318 -0.000596899 0
-0.000877298 0.00321468 0
-0.00156403 -0.00263712 0
0.000715345 0.00395943 0
-0.0058093 -0.00319082 0
-0.0103673 -5.51741e-005 0
-0.00544973 0.0027888 0
0.0014378 -0.00293987 0
-0.000108401 0.00354885 0
-0.0129424 0.0162545 0
-0.0231982 -0.000565771 0
-0.0126299 -0.0178925 0
-0.000489025 -0.00357779 0
-0.00632224 0.0153202 0
-0.0088342 0.0173221 0
-0.00450261 -0.000548289 0
-0.00920464 -0.0176505 0
-0.00803365 -0.0140622 0
0.0232141 0.015014 0
0.0480281 0.00433285 0
0.0480051 -0.000294773 0
0.0472256 -0.00310846 0
0.0181027 -0.012452 0
