# vtk DataFile Version 4.0
SiwiRVisFile
ASCII
DATASET STRUCTURED_POINTS
DIMENSIONS 50 50 1
ORIGIN 0 0 0
SPACING 1 1 1
POINT_DATA 2500

SCALARS flags double 1
LOOKUP_TABLE default
1
1
1
1
1
1
1
1
1
1
1
1
1
1
1
1
1
1
1
1
1
1
1
1
1
1
1
1
1
1
1
1
1
1
1
1
1
1
1
1
1
1
1
1
1
1
1
1
1
1
1
1
1
1
1
1
1
1
1
1
1
1
1
1
1
1
1
1
1
1
1
1
1
1
1
1
1
1
1
1
1
1
1
1
1
1
1
1
1
1
1
1
1
1
1
1
1
1
1
1
1
1
1
1
1
1
1
1
1
1
1
1
1
1
1
1
1
1
1
1
1
1
1
1
1
1
1
1
1
1
1
1
1
1
1
1
1
1
1
1
1
1
1
1
1
1
1
1
1
1
1
1
1
1
1
1
1
1
1
1
1
1
1
1
1
1
1
1
1
1
1
1
1
1
1
1
1
1
1
1
1
1
1
1
1
1
1
1
1
1
1
1
1
1
1
1
1
1
1
1
1
1
1
1
1
1
1
1
1
1
1
1
1
1
1
1
1
1
1
1
1
1
1
1
1
1
1
1
1
1
1
1
1
1
1
1
1
1
1
1
1
1
1
1
1
1
1
1
1
1
1
1
1
1
1
1
1
1
1
1
1
1
1
1
1
1
1
1
1
1
1
1
1
1
1
1
1
1
1
1
1
1
1
1
1
1
1
1
1
1
1
1
1
1
1
1
1
1
1
1
1
1
1
1
1
1
1
1
1
1
1
1
1
1
1
1
1
1
1
1
1
1
1
1
1
1
1
1
1
1
1
1
1
1
1
1
1
1
1
1
1
1
1
1
1
1
1
1
1
1
1
1
1
1
1
1
1
1
1
1
1
1
1
1
1
1
1
1
1
1
1
1
1
1
1
1
1
1
1
1
1
1
1
1
1
1
1
1
1
1
1
1
1
1
1
1
1
1
1
1
1
1
1
1
1
1
1
1
1
1
1
1
1
1
1
1
1
1
1
1
1
1
1
1
1
1
1
1
1
1
1
1
1
1
1
1
1
1
1
1
1
1
1
1
1
1
1
1
1
1
1
1
1
1
1
1
1
1
1
1
1
1
1
1
1
1
1
1
1
1
1
1
1
1
1
1
1
1
1
1
1
1
1
1
1
1
1
1
1
1
1
1
1
1
1
1
1
1
1
1
1
1
1
1
1
1
1
1
1
1
1
1
1
1
1
1
1
1
1
1
1
1
1
1
1
1
1
1
1
1
1
1
1
1
1
1
1
1
1
1
1
1
1
1
1
1
1
1
1
1
1
1
1
1
1
1
1
1
1
1
1
1
1
1
1
1
1
1
1
1
1
1
1
1
1
1
1
1
1
1
1
1
1
1
1
1
1
1
1
1
1
1
1
1
1
1
1
1
1
1
1
1
1
1
1
1
1
1
1
1
1
1
1
1
1
1
1
1
1
1
1
1
1
1
1
1
1
1
1
1
1
1
1
1
1
1
1
1
1
1
1
1
1
1
1
1
1
1
1
1
1
1
1
1
1
1
1
1
1
1
1
1
1
1
1
1
1
1
1
1
1
1
1
1
1
1
1
1
1
1
1
1
1
1
1
1
1
1
1
1
1
1
1
1
1
1
1
1
1
1
1
1
1
1
1
1
1
1
1
1
1
1
1
1
1
1
1
1
1
1
1
1
1
1
1
1
1
1
1
1
1
1
1
1
1
1
1
1
1
1
1
1
1
1
1
1
1
1
1
1
1
1
1
1
1
1
1
1
1
1
1
1
1
1
1
1
1
1
1
1
1
1
1
1
1
1
1
1
1
1
1
1
1
1
1
1
1
1
1
1
1
1
1
1
1
1
1
1
1
1
1
1
1
1
1
1
1
1
1
1
1
1
1
1
1
1
1
1
1
1
1
1
1
1
1
1
1
1
1
1
1
1
1
1
1
1
1
1
1
1
1
1
1
1
1
1
1
1
1
1
1
1
1
1
1
1
1
1
1
1
1
1
1
1
1
1
1
1
1
1
1
1
1
1
1
1
1
1
1
1
1
1
1
1
1
1
1
1
1
1
1
1
1
1
1
1
1
1
1
1
1
1
1
1
1
1
1
1
1
1
1
1
1
1
1
1
1
1
1
1
1
1
1
1
1
1
1
1
1
1
1
1
1
1
1
1
1
1
1
1
1
1
1
1
1
1
1
1
1
1
1
1
1
1
1
1
1
1
1
1
1
1
1
1
1
1
1
1
1
1
1
1
1
1
1
1
1
1
1
1
1
1
1
1
1
1
1
1
1
1
1
1
1
1
1
1
1
1
1
1
1
1
1
1
1
1
1
1
1
1
1
1
1
1
1
1
1
1
1
1
1
1
1
1
1
1
1
1
1
1
1
1
1
1
1
1
1
1
1
1
1
1
1
1
1
1
1
1
1
1
1
1
1
1
1
1
1
1
1
1
1
1
1
1
1
1
1
1
1
1
1
1
1
1
1
1
1
1
1
1
1
1
1
1
1
1
1
1
1
1
1
1
1
1
1
1
1
1
1
1
1
1
1
1
1
1
1
1
1
1
1
1
1
1
1
1
1
1
1
1
1
1
1
1
1
1
1
1
1
1
1
1
1
1
1
1
1
1
1
1
1
1
1
1
1
1
1
1
1
1
1
1
1
1
1
1
1
1
1
1
1
1
1
1
1
1
1
1
1
1
1
1
1
1
1
1
1
1
1
1
1
1
1
1
1
1
1
1
1
1
1
1
1
1
1
1
1
1
1
1
1
1
1
1
1
1
1
1
1
1
1
1
1
1
1
1
1
1
1
1
1
1
1
1
1
1
1
1
1
1
1
1
1
1
1
1
1
1
1
1
1
1
1
1
1
1
1
1
1
1
1
1
1
1
1
1
1
1
1
1
1
1
1
1
1
1
1
1
1
1
1
1
1
1
1
1
1
1
1
1
1
1
1
1
1
1
1
1
1
1
1
1
1
1
1
1
1
1
1
1
1
1
1
1
1
1
1
1
1
1
1
1
1
1
1
1
1
1
1
1
1
1
1
1
1
1
1
1
1
1
1
1
1
1
1
1
1
1
1
1
1
1
1
1
1
1
1
1
1
1
1
1
1
1
1
1
1
1
1
1
1
1
1
1
1
1
1
1
1
1
1
1
1
1
1
1
1
1
1
1
1
1
1
1
1
1
1
1
1
1
1
1
1
1
1
1
1
1
1
1
1
1
1
1
1
1
1
1
1
1
1
1
1
1
1
1
1
1
1
1
1
1
1
1
1
1
1
1
1
1
1
1
1
1
1
1
1
1
1
1
1
1
1
1
1
1
1
1
1
1
1
1
1
1
1
1
1
1
1
1
1
1
1
1
1
1
1
1
1
1
1
1
1
1
1
1
1
1
1
1
1
1
1
1
1
1
1
1
1
1
1
1
1
1
1
1
1
1
1
1
1
1
1
1
1
1
1
1
1
1
1
1
1
1
1
1
1
1
1
1
1
1
1
1
1
1
1
1
1
1
1
1
1
1
1
1
1
1
1
1
1
1
1
1
1
1
1
1
1
1
1
1
1
1
1
1
1
1
1
1
1
1
1
1
1
1
1
1
1
1
1
1
1
1
1
1
1
1
1
1
1
1
1
1
1
1
1
1
1
1
1
1
1
1
1
1
1
1
1
1
1
1
1
1
1
1
1
1
1
1
1
1
1
1
1
1
1
1
1
1
1
1
1
1
1
1
1
1
1
1
1
1
1
1
1
1
1
1
1
1
1
1
1
1
1
1
1
1
1
1
1
1
1
1
1
1
1
1
1
1
1
1
1
1
1
1
1
1
1
1
1
1
1
1
1
1
1
1
1
1
1
1
1
1
1
1
1
1
1
1
1
1
1
1
1
1
1
1
1
1
1
1
1
1
1
1
1
1
1
1
1
1
1
1
1
1
1
1
1
1
1
1
1
1
1
1
1
1
1
1
1
1
1
1
1
1
1
1
1
1
1
1
1
1
1
1
1
1
1
1
1
1
1
1
1
1
1
1
1
1
1
1
1
1
1
1
1
1
1
1
1
1
1
1
1
1
1
1
1
1
1
1
1
1
1
1
1
1
1
1
1
1
1
1
1
1
1
1
1
1
1
1
1
1
1
1
1
1
1
1
1
1
1
1
1
1
1
1
1
1
1
1
1
1
1
1
1
1
1
1
1
1
1
1
1
1
1
1
1
1
1
1
1
1
1
1
1
1
1
1
1
1
1
1
1
1
1
1
1
1
1
1
1
1
1
1
1
1
1
1
1
1
1
1
1
1
1
1
1
1
1
1
1
1
1
1
1
1
1
1
1
1
1
1
1
1
1
1
1
1
1
1
1
1
1
1
1
1
1
1
1
1
1
1
1
1
1
1
1
1
1
1
1
1
1
1
1
1
1
1
1
1
1
1
1
1
1
1
1
1
1
1
1
1
1
1
1
1
1
1
1
1
1
1
1
1
1
1
1
1
1
1
1
1
1
1
1
1
1
1
1
1
1
1
1
1
1
1
1
1
1
1
1
1
1
1
1
1
1
1
1
1
1
1
1
1
1
1
1
1
1
1
1
1
1
1
1
1
1
1
1
1
1
1
1
1
1
1
1
1
1
1
1
1
1
1
1
1
1
1
1
1
1
1
1
1
1
1
1
1
1
1
1
1
1
1
1
1
1
1
1
1
1
1
1
1
1
1
1
1
1
1
1
1
1
1
1
1
1
1
1
1
1
1
1
1
1
1
1
1
1
1
1
1
1
1
1
1
1
1
1
1
1
1
1
1
1
1
1
1
1
1
1
1
1
1
1
1
1
1
1
1
1
1
1
1
1
1
1
1
1
1
1
1
1
1
1
1
1
1
1
1
1
1
1
1
1
1
1
1
1
1
1
1
1
1
1
1
1
1
1
1
1
1
1
1
1
1
1
1
1
1
1
1
1
1
1
1
1
1
1
1
1
1
1
1
1
1
1
1
1
1
1
1
1
1
1
1
1
1
1
1
1
1
1
1
1
1
1
1
1
1
1
1
1
1
1
1
1
1
1
1
1
1
1
1
1
1
1
1
1
1
1
1
1
1
1
1
1
1
1
1
1
1
1
1
1
1
1
1
1
1
1
1
1
1
1
1
1
1
1
1
1
1
1
1
1
1
1
1
1
1
1
1
1
1
1
1
1
1
1
1
1
1
1
1
1
1
1
1
1
1
1
1
1
1
1
1
1
1
1
1
1
1
1
1
1
1
1
1
1
1
1
1
1
1
1
1
1
1
1
1
1
1
1
1
1
1
1
1
1
1
1
1
1
1
1
1
1
1
1
1
1
1
1
1
1
1
1
1
1
1
1
1
1
1
1
1
1
1
1
1
1
1
1
1
1
1
1
1
1
1
1
1
1
1
1
1
1
1
1
1
1
1
1
1
1
1
1
1
1
1
1
1
1
1
1
1
1
1
1
1
1
1
1
1
1
1
1
1
1
1
1
1
1
1
1
1
1
1
1
1
1
1
1
1
1
1
1
1
1
1
1
1
1
1
1
1
1
1
1
1
1
1
1
1
1
1
1
1
1
1
1
1
1
1
1
1
1
1
1
1
1
1
1
1
1
1
1
1
1
1
1
1
1
1
1
1
1
1
1
1
1
1
1
1
1
1
1
1
1
1
1
1
1
1
1
1
1
1
1
1
1
1
1
1
1
1
1
1

SCALARS density double 1
LOOKUP_TABLE default
1
1
1
1
1
1
1
1
1
1
1
1
1
1
1
1
1
1
1
1
1
1
1
1
1
1
1
1
1
1
1
1
1
1
1
1
1
1
1
1
1
1
1
1
1
1
1
1
1
1
1
1
1
1
1
1
1
1
1
1
1
1
1
1
1
1
1
1
1
1
1
1
1
1
1
1
1
1
1
1
1
1
1
1
1
1
1
1
1
1
1
1
1
1
1
1
1
1
1
1
1
1
1
1
1
1
1
1
1
1
1
1
1
1
1
1
1
1
1
1
1
1
1
1
1
1
1
1
1
1
1
1
1
1
1
1
1
1
1
1
1
1
1
1
1
1
1
1
1
1
1
1
1
1
1
1
1
1
1
1
1
1
1
1
1
1
1
1
1
1
1
1
1
1
1
1
1
1
1
1
1
1
1
1
1
1
1
1
1
1
1
1
1
1
1
1
1
1
1
1
1
1
1
1
1
1
1
1
1
1
1
1
1
1
1
1
1
1
1
1
1
1
1
1
1
1
1
1
1
1
1
1
1
1
1
1
1
1
1
1
1
1
1
1
1
1
1
1
1
1
1
1
1
1
1
1
1
1
1
1
1
1
1
1
1
1
1
1
1
1
1
1
1
1
1
1
1
1
1
1
1
1
1
1
1
1
1
1
1
1
1
1
1
1
1
1
1
1
1
1
1
1
1
1
1
1
1
1
1
1
1
1
1
1
1
1
1
1
1
1
1
1
1
1
1
1
1
1
1
1
1
1
1
1
1
1
1
1
1
1
1
1
1
1
1
1
1
1
1
1
1
1
1
1
1
1
1
1
1
1
1
1
1
1
1
1
1
1
1
1
1
1
1
1
1
1
1
1
1
1
1
1
1
1
1
1
1
1
1
1
1
1
1
1
1
1
1
1
1
1
1
1
1
1
1
1
1
1
1
1
1
1
1
1
1
1
1
1
1
1
1
1
1
1
1
1
1
1
1
1
1
1
1
1
1
1
1
1
1
1
1
1
1
1
1
1
1
1
1
1
1
1
1
1
1
1
1
1
1
1
1
1
1
1
1
1
1
1
1
1
1
1
1
1
1
1
1
1
1
1
1
1
1
1
1
1
1
1
1
1
1
1
1
1
1
1
1
1
1
1
1
1
1
1
1
1
1
1
1
1
1
1
1
1
1
1
1
1
1
1
1
1
1
1
1
1
1
1
1
1
1
1
1
1
1
1
1
1
1
1
1
1
1
1
1
1
1
1
1
1
1
1
1
1
1
1
1
1
1
1
1
1
1
1
1
1
1
1
1
1
1
1
1
1
1
1
1
1
1
1
1
1
1
1
1
1
1
1
1
1
1
1
1
1
1
1
1
1
1
1
1
1
1
1
1
1
1
1
1
1
1
1
1
1
1
1
1
1
1
1
1
1
1
1
1
1
1
1
1
1
1
1
1
1
1
1
1
1
1
1
1
1
1
1
1
1
1
1
1
1
1
1
1
1
1
1
1
1
1
1
1
1
1
1
1
1
1
1
1
1
1
1
1
1
1
1
1
1
1
1
1
1
1
1
1
1
1
1
1
1
1
1
1
1
1
1
1
1
1
1
1
1
1
1
1
1
1
1
1
1
1
1
1
1
1
1
1
1
1
1
1
1
1
1
1
1
1
1
1
1
1
1
1
1
1
1
1
1
1
1
1
1
1
1
1
1
1
1
1
1
1
1
1
1
1
1
1
1
1
1
1
1
1
1
1
1
1
1
1
1
0.999999
0.999999
1
1
1
1
1
1
1
1
1
1
1
1
1
1
1
1
1
1
1
1
1
1
1
1
1
1
1
0.999999
1
0.999996
1
1
1
1
1
1
1
1
1
1
1
1
1
1
1
1
0.999999
0.999998
0.999998
0.999999
0.999999
0.999999
0.999999
1
1
1
1
1
1
1
1
1
1
1
0.999999
0.999999
0.999999
0.999999
0.999999
0.999999
0.999999
0.999999
0.999999
0.999999
0.999999
1
1
0.999998
1
1.00001
0.999999
0.999999
0.999999
0.999999
0.999999
0.999999
0.999999
0.999999
0.999999
1
1
1
1
1
1
1
1
1
0.999999
0.999999
1
1
0.999999
1
1
0.999997
1
1
0.999997
0.999998
0.999999
0.999998
0.999998
0.999998
0.999998
0.999999
0.999999
1
1
1
1
1
1
1
1
1
1
1
0.999996
1
0.999998
1
1
1
1
1
1
0.999999
0.999999
0.999999
0.999998
1
0.999999
0.999997
1.00001
1
0.999992
1.00001
1.00002
1
0.999994
1.00001
1.00001
0.999989
0.999988
1
0.999998
0.999981
0.999995
1.00001
0.999996
0.999995
1
1
1
1
1
1
1
1
1
1
1
1
1
1
0.999991
1
1
0.999998
1
1
1
1
1
1
1
1
1
1
0.999996
0.999998
1.00001
0.99999
0.999976
1.00002
1.00001
0.999968
1
1.00003
0.999991
0.999995
1.00001
0.99999
1
1.00001
0.999972
0.999998
1.00003
0.999988
0.999981
1.00003
1.00001
0.999988
1
1
0.999996
0.999998
0.999997
0.999995
0.999996
0.999995
0.999996
0.999996
0.999997
1
0.999993
1
0.999999
0.999995
1
1
0.999999
0.999999
1
0.999998
1
1
0.999993
1.00001
1.00002
0.999968
0.999998
1.00007
0.999975
0.999929
1.00006
1.00003
0.999915
0.999995
1.00006
0.999963
0.99995
1.00005
1.00004
0.999944
1
1.00008
0.999971
0.999945
1.00007
1.00002
0.999932
1
1.00003
0.999974
0.999984
1
0.999993
0.999996
1
0.999999
1
1
1
0.999995
1.00002
0.999997
0.999989
1.00001
0.999995
1
0.999999
0.999997
1
0.999996
0.999989
1.00002
0.999991
0.99994
1.00006
1.00006
0.999883
0.999975
1.00015
0.999956
0.999879
1.00011
1.00005
0.999891
1
1.00003
0.999982
1.00002
0.999967
0.999993
1.00011
0.999952
0.999891
1.00011
1.00004
0.99985
1.00002
1.00011
0.999941
0.999949
1.00006
1.00001
0.999984
1.00002
1.00001
1
1.00001
1
0.999999
0.999996
0.999997
0.999999
0.999968
0.99999
0.999991
0.999997
1.00001
0.999989
1
1.00003
0.999947
0.999975
1.00012
0.999946
0.999821
1.00012
1.00013
0.999781
0.999959
1.00023
0.999931
0.999846
1.00018
1.00006
0.999818
1.00005
1.00014
0.999866
0.999937
1.00018
0.999948
0.999814
1.00015
1.00008
0.999783
1.00004
1.00022
0.999885
0.999889
1.00018
1.00005
0.999886
1.00002
1.00005
0.99997
0.999992
1
0.999991
0.999995
1.00002
0.99999
1.00004
0.99995
0.999963
0.999989
0.999966
1.00001
0.99999
0.999928
1.00007
1.00009
0.999808
0.999964
1.00028
0.99993
0.99974
1.0002
1.00016
0.999743
0.999972
1.00027
0.999904
0.999807
1.00016
1.00009
0.999896
0.999963
1.00003
1.00011
0.999926
0.999837
1.00018
1.00011
0.999743
1.00001
1.00025
0.999854
0.999796
1.00024
1.00006
0.999723
1.00003
1.00018
0.999908
0.999935
1.00007
1.00001
0.999988
1.00004
1.00002
1.00003
1.00006
0.999929
0.999913
0.999997
0.999941
0.999971
1.00012
0.999942
0.999795
1.00022
1.00019
0.999679
0.999974
1.00035
0.999901
0.999782
1.00024
1.00012
0.99974
0.999953
1.00024
0.999875
0.999804
1.00026
0.999995
0.999779
1.00021
1.00003
0.999738
1.00017
1.00014
0.999765
1.00002
1.00025
0.99989
0.999759
1.0002
1.0001
0.999671
1.00003
1.0003
0.999824
0.999798
1.0002
1.00006
0.99989
1.00002
1.00006
0.999992
1.0001
1.00006
0.999903
0.99977
0.999951
0.999995
0.999773
0.999983
1.00034
0.99984
0.999671
1.00029
1.00014
0.99967
1.00001
1.00026
0.999825
0.999824
1.00016
1.00012
0.999814
0.999905
1.00025
0.999982
0.999718
1.00015
1.00023
0.999783
0.999824
1.00026
1.00004
0.999759
1.00007
1.00019
0.999907
0.999844
1.00016
1.00018
0.999765
0.999982
1.0003
0.99987
0.999728
1.0003
1.00013
0.999678
1.00001
1.00021
0.999999
1.00004
1.00022
1.0001
0.999812
0.999648
0.99958
1
0.999946
0.999453
0.99994
1.00035
0.999776
0.999758
1.00024
1.00001
0.999728
1.00002
1.00017
0.999908
0.999903
1.00011
1.0001
0.999919
0.999935
1.0002
0.999861
0.999924
1.00018
0.999831
1.00005
1.00016
0.999816
1.00004
1.00009
0.999924
0.999888
1.00007
1.00008
0.999839
0.999961
1.00024
0.999981
0.999761
1.00021
1.00018
0.99967
1.00006
1.00048
1.00004
1.00002
1.00041
1.00031
1.0002
0.999455
0.999951
0.999274
0.999248
0.999993
0.999852
0.999428
0.99996
1.00019
0.999812
0.999908
1.00019
1.00007
0.999909
0.999996
1.00012
0.999911
0.999958
1.00009
1.00009
0.999864
0.999852
1.00038
0.999911
0.999562
1.0004
1.00015
0.999631
1.0001
1.00014
0.999924
0.999896
1.00001
1.00008
0.999884
0.999985
1.00009
0.999922
0.999811
1.00009
1.00017
0.999817
1.00004
1.00051
1.00011
1.00001
1.00069
1.00064
1.00003
1.00047
0.998935
0.999733
0.999531
0.998953
0.998991
0.999691
0.999565
0.999479
0.999858
1.00007
0.999894
0.999925
1.00004
1.00006
0.999885
0.999983
1.00019
0.999732
0.999941
1.00005
1.00005
1.00002
0.999931
1.00004
1.00003
0.999975
0.999962
1.00004
0.99999
0.999963
0.999945
1.00003
1.00027
0.999843
0.999999
1.00013
0.999944
0.999942
1.00008
1.00009
0.999879
1.00011
1.00045
1.00034
1.00025
1.0009
1.00085
1.00034
1.00023
1.00084
0.999377
0.99814
0.998364
0.999056
0.998421
0.998483
0.999092
0.999183
0.999288
0.999536
0.999936
0.999736
0.999877
1.00015
1.00007
0.999728
1.00004
1.00029
0.999779
0.99998
1.00013
1.00005
0.999739
0.999999
1.00043
0.999629
0.99992
1.00027
0.999993
0.999861
0.999985
1.00023
0.999748
0.999909
1.00027
0.999929
0.999819
1.0001
1.00022
0.99999
1.00038
1.00064
1.00065
1.00072
1.00129
1.00131
1.0007
1.00132
1.00157
1.00045
0.998373
0.997811
0.99758
0.998348
0.998001
0.99789
0.998058
0.998605
0.99888
0.998988
0.999674
1.00007
0.999559
0.999862
1.00016
1.00024
0.999767
1.00007
1.00022
0.999783
1
0.999924
1.00017
1.00003
0.999739
1.00022
1.00002
0.999845
1.00005
0.999953
1.00022
0.999818
0.999858
1.00025
0.999773
0.999772
1.00011
1.00039
0.999895
1.00021
1.00087
1.00089
1.00109
1.00161
1.00172
1.00147
1.00128
1.00182
1.00154
1.00132
0.996312
0.998596
0.997711
0.997105
0.99734
0.99796
0.997239
0.997661
0.998353
0.998454
0.998501
0.999459
1.00004
0.999505
0.999948
0.999927
1.0001
0.999689
1.00002
1.00029
0.999675
1.00002
1.00024
0.99997
0.999697
1.00024
1.0001
0.999762
0.999919
1.00034
0.99977
0.999922
1.00033
0.999909
0.999997
1.00007
1.00046
0.999896
1.00035
1.00128
1.00123
1.00125
1.00183
1.00218
1.00146
1.00185
1.00228
1.00164
1.00074
1.00284
0.997183
0.997779
0.996786
0.997254
0.997752
0.997574
0.997152
0.996609
0.997185
0.997769
0.998087
0.998333
0.999368
0.999773
0.999432
0.999995
1.00005
1.00028
0.999675
1.00004
1.00026
0.999976
0.999715
0.999987
1.00033
0.999756
0.999924
1.00025
1.00007
0.999791
0.999888
1.00033
0.999739
0.999852
1.00001
1.00046
1.00012
1.00044
1.00138
1.00153
1.00164
1.00221
1.00267
1.00213
1.00185
1.00164
1.00202
1.00246
1.00185
1.00196
0.9981
0.99693
0.997202
0.999204
0.997635
0.99709
0.998111
0.998014
0.996754
0.997349
0.997617
0.998079
0.998062
0.999612
0.99991
0.999584
0.999897
0.999982
1.0003
0.999674
1.0001
1.00005
0.999788
1.00014
1.0002
0.999853
0.999796
1.00021
0.99999
0.99982
1.00031
0.999748
0.999901
1.00009
1.00034
1.00005
1.00015
1.00154
1.00146
1.00176
1.00206
1.0026
1.00153
1.00134
1.00234
1.00201
1.00062
1.00215
1.00277
1.00148
0.996522
0.997477
0.998072
0.998282
0.997427
0.998035
0.99824
0.997647
0.997459
0.99666
0.997178
0.997278
0.998208
0.997725
0.999393
0.999718
0.999485
0.999865
1.00003
1.00012
0.999734
0.999937
1.0004
0.999978
0.999625
1.00024
1.00014
0.999641
0.999968
1.00027
0.999931
0.999879
1.00014
1.00046
1.0002
1.00032
1.00182
1.00143
1.00211
1.0023
1.00274
1.00211
1.002
1.00166
1.00167
1.00222
1.00189
1.00167
1.00209
1.00323
0.996628
0.99826
0.997097
0.995791
0.997537
0.998419
0.997491
0.996724
0.998256
0.997991
0.996325
0.997
0.997282
0.998109
0.998042
0.999712
0.99998
0.999609
0.999925
1.00018
1.00018
0.999847
0.99997
0.999843
0.999954
1.00005
1.00018
0.999973
1.00015
0.999899
0.999755
1.00003
1.00032
0.999907
1.00004
1.00151
1.00154
1.00209
1.00246
1.00315
1.00183
1.00147
1.00282
1.00234
1.00162
1.00196
1.00393
1.0029
1.0016
1.00288
0.997962
0.997159
0.996159
0.99846
0.997241
0.996688
0.99789
0.998914
0.997503
0.997964
0.997632
0.997028
0.997112
0.997698
0.998226
0.998123
0.999646
1
0.999635
0.999743
1.00017
1.00017
0.999626
1.00003
1.00049
0.999656
0.999798
1.00032
0.999915
0.999758
1.00015
1.00033
0.999947
1.00012
1.00144
1.00146
1.00176
1.00242
1.00259
1.00205
1.0018
1.00239
1.00103
1.00165
1.0033
1.00243
1.00121
1.00332
1.00296
1.00185
0.997932
0.996406
0.996765
0.998579
0.996649
0.995908
0.998474
0.997811
0.997162
0.996423
0.998896
0.997062
0.996153
0.996716
0.997408
0.998401
0.998401
0.999729
1.00004
0.999753
0.999749
1.00014
1.00016
1.00015
0.999905
0.99999
0.999879
0.999922
0.999808
1.00016
1.00027
0.999915
1.00002
1.00128
1.00135
1.00203
1.00281
1.00345
1.00282
1.00115
1.00323
1.00274
1.00228
1.00163
1.0039
1.00339
1.00189
1.00277
1.00369
1.00238
0.996317
0.999308
0.99849
0.996039
0.997427
0.998236
0.996688
0.99617
0.998324
0.999033
0.99641
0.997569
0.998004
0.996818
0.997337
0.998006
0.998846
0.998975
0.999927
1.00032
0.999738
0.999819
1.00015
0.999896
0.999443
1.00044
1.00028
0.999843
1.00007
1.00029
0.999662
0.999846
1.00077
1.00088
1.00149
1.00225
1.00294
1.00188
1.00212
1.00353
1.00114
1.00137
1.00389
1.00337
1.00179
1.00246
1.00454
1.00179
1.001
1.00385
0.99577
0.998153
0.996641
0.995655
0.997133
0.997365
0.996768
0.995951
0.998059
0.997367
0.996971
0.997244
0.997962
0.996735
0.996186
0.997069
0.998202
0.998912
0.99905
0.99977
1.00026
0.999964
0.999778
0.99999
1.00024
0.999918
0.99989
1.00007
1.00008
0.999729
0.999984
1.00074
1.00088
1.00139
1.0025
1.00348
1.00322
1.00219
1.00266
1.00283
1.00256
1.00207
1.00368
1.00304
1.00294
1.00284
1.00399
1.00353
1.00237
1.00413
0.999371
0.995081
0.996308
0.998166
0.998126
0.995156
0.998768
0.99796
0.996607
0.997208
0.998952
0.998283
0.99563
0.997547
0.997539
0.996735
0.99762
0.998887
0.999627
0.999409
0.999968
1.00021
0.999985
1.00005
1.00049
0.999529
0.999769
1.0001
0.999847
0.999827
1.00044
1.00028
1.00071
1.00197
1.00313
1.00261
1.00228
1.00413
1.00205
1.00092
1.00292
1.00372
1.00213
1.00097
1.005
1.00223
1.00169
1.00362
1.00535
1.00072
0.995844
0.997205
0.997708
0.996983
0.997488
0.997261
0.997617
0.997066
0.996838
0.996748
0.997658
0.997309
0.99756
0.997131
0.997246
0.996904
0.996964
0.998164
0.999448
0.999706
0.999525
0.999775
1.00018
0.999761
0.999674
1.00015
1.00039
0.999916
1.00001
1.00035
1.00027
1.00026
1.00148
1.00283
1.00311
1.00283
1.00291
1.00245
1.00281
1.00253
1.00308
1.00311
1.00326
1.00298
1.00274
1.00248
1.00342
1.00213
1.00272
1.00463
0.99391
0.998011
0.996568
0.993078
0.996981
0.997821
0.995101
0.994296
0.99844
0.997241
0.995212
0.997583
0.998693
0.996924
0.995447
0.996905
0.997424
0.997329
0.998497
0.999883
1.00011
0.999812
1.00007
1.00007
0.999682
1.00036
1.00003
0.999692
1.00007
0.999907
0.999831
1.00104
1.00251
1.00268
1.00304
1.00448
1.0034
1.00139
1.00221
1.00473
1.00294
1.0014
1.00566
1.00523
1.00224
1.00278
1.00702
1.00354
1.00217
1.00602
0.998296
0.996073
0.997432
0.997764
0.99886
0.996276
0.997779
0.999086
0.998378
0.997933
0.998147
0.998353
0.997883
0.997556
0.998393
0.997404
0.996983
0.998143
0.998611
0.999339
1.00001
1.0001
0.999758
1.00028
1.00027
0.999814
0.999503
1.00013
1.00004
0.999799
1.00035
1.00135
1.00196
1.00316
1.00306
1.00199
1.00252
1.00243
1.00173
1.00169
1.00219
1.00242
1.00111
1.0018
1.00404
1.00139
1.00209
1.00297
1.00431
1.00161
0.997349
0.99294
0.994655
0.998577
0.995411
0.99261
0.997216
0.997061
0.995005
0.995102
0.997491
0.996277
0.994462
0.996697
0.997036
0.995419
0.995278
0.997183
0.998347
0.998824
0.99928
1.00007
0.999858
0.999807
1.00009
0.999819
1.00014
1.00034
0.999761
1.00035
1.00116
1.0017
1.0026
1.00475
1.00515
1.00341
1.00313
1.00539
1.00419
1.00228
1.00474
1.00532
1.00298
1.00244
1.0075
1.0051
1.00174
1.00556
1.00712
1.00321
0.994536
0.998596
1.00046
0.992781
0.99856
0.998897
0.9976
0.996608
0.998934
0.999312
0.997188
0.998568
1.00004
0.998497
0.997746
0.99861
0.998912
0.997904
0.998631
1.00001
1.00001
1.00007
1.00037
0.999847
0.999827
1.00015
1.00029
0.999555
0.999567
1.00003
0.999963
1.00126
1.00262
1.0019
1.00177
1.00241
1.00165
0.999941
1.0014
1.00345
1.0013
1.00107
1.00347
1.0027
1.00151
1.00157
1.00842
1.0002
1.00194
1.00592
0.994222
0.999875
0.994215
0.991651
0.996222
0.997397
0.995984
0.995008
0.997257
0.996333
0.995075
0.996383
0.996483
0.994954
0.995227
0.995991
0.995809
0.995605
0.997098
0.99868
0.999431
0.999308
0.999938
1.00016
1.00002
1
0.99975
0.999742
1.00071
1.00074
1.00111
1.00298
1.00525
1.00516
1.00439
1.00486
1.00545
1.00378
1.0034
1.00492
1.00385
1.00231
1.00511
1.00466
1.00259
1.00382
1.00816
1.00621
1.00172
1.00642
1.00251
0.988089
0.994726
1.00103
0.998245
0.99301
0.99866
0.999588
0.995885
0.997183
1.00009
0.999284
0.996708
0.998508
1.00009
0.997694
0.996936
0.998979
0.999799
0.999194
1.00006
1.00033
1.00002
1.00014
1.00009
0.999892
0.99977
1.00001
0.999734
0.999513
1.00102
1.00111
1.00158
1.00362
1.00341
1.0003
1.00056
1.00299
1.00127
1.0001
1.00273
1.00472
1.00099
1.00118
1.00745
1.00328
0.999872
1.00557
1.01229
0.996864
0.992033
0.992098
0.99408
0.997279
0.995518
0.993721
0.997012
0.996411
0.995649
0.996907
0.997693
0.996712
0.995664
0.995896
0.995601
0.995729
0.996553
0.997188
0.997792
0.998484
0.999496
1.00005
0.999797
0.999801
0.999895
1.00005
1.00022
1.00033
0.999834
1.0002
1.00187
1.003
1.00389
1.00487
1.00555
1.00488
1.00367
1.00428
1.00403
1.00248
1.0028
1.00484
1.00394
1.00242
1.0057
1.00563
1.00378
1.00536
1.00752
1.01038
0.991364
1.00342
0.998302
0.989891
0.996862
0.999462
0.99519
0.994809
0.998818
0.998606
0.996775
0.998202
0.998798
0.996671
0.995462
0.997563
0.998027
0.997239
0.998435
1.00025
0.99979
0.999608
1.00002
1.00011
1.00002
0.999968
0.999829
0.999824
1.00051
1.00077
0.999682
1.00174
1.00423
1.00348
1.00293
1.00473
1.00328
1.00048
1.00153
1.00385
1.00115
1.00088
1.00622
1.00589
0.999909
1.00362
1.01283
1.00071
0.996503
1.02114

VECTORS velocity double
1.04083e-017 -5.55112e-017 0
-6.59195e-017 1.94289e-016 0
9.02056e-017 -1.11022e-016 0
3.81639e-017 -2.77556e-017 0
1.38778e-017 8.32667e-017 0
9.02056e-017 -1.59595e-016 0
6.245e-017 -2.35922e-016 0
1.38778e-017 -1.00614e-016 0
-3.1225e-017 -1.76942e-016 0
2.08167e-017 -8.32667e-017 0
-1.04083e-016 -1.31839e-016 0
-1.2837e-016 -2.08167e-016 0
1.17961e-016 -2.22045e-016 0
-2.77556e-017 -1.56125e-016 0
1.38778e-017 0 0
5.20417e-017 -8.67362e-017 0
-2.08167e-017 -3.46945e-018 0
1.45717e-016 1.52656e-016 0
-5.89806e-017 -6.93889e-018 0
-1.38778e-017 -1.70003e-016 0
2.08167e-017 -1.04083e-016 0
-5.20417e-017 -2.32453e-016 0
-3.81639e-017 -1.14492e-016 0
1.21431e-016 2.08167e-017 0
9.02056e-017 -4.51028e-017 0
1.21431e-016 -6.93889e-018 0
-3.81639e-017 -2.5327e-016 0
-1.14492e-016 -2.74086e-016 0
-4.16334e-017 -1.07553e-016 0
2.08167e-017 -5.20417e-017 0
-1.35308e-016 -1.04083e-017 0
-9.71445e-017 -1.17961e-016 0
-1.38778e-017 -1.04083e-016 0
-7.97973e-017 -1.66533e-016 0
-1.00614e-016 -1.94289e-016 0
5.20417e-017 -3.46945e-018 0
1.2837e-016 3.1225e-017 0
9.71445e-017 -2.77556e-017 0
-5.20417e-017 7.63278e-017 0
1.52656e-016 1.94289e-016 0
7.63278e-017 2.39392e-016 0
4.16334e-017 1.35308e-016 0
-6.59195e-017 9.02056e-017 0
-4.51028e-017 -1.45717e-016 0
-1.73472e-017 -5.89806e-017 0
-1.38778e-017 -2.77556e-017 0
-6.59195e-017 -2.08167e-017 0
-1.249e-016 1.00614e-016 0
0 4.16334e-017 0
-3.81639e-017 7.63278e-017 0
0 -3.81639e-017 0
-1.04083e-016 1.249e-016 0
-2.42861e-017 1.42247e-016 0
-2.08167e-017 6.93889e-017 0
7.97973e-017 -4.51028e-017 0
1.94289e-016 5.55112e-017 0
7.63278e-017 -3.46945e-017 0
9.36751e-017 -7.63278e-017 0
7.97973e-017 1.35308e-016 0
-6.93889e-017 -9.71445e-017 0
1.04083e-016 -3.81639e-017 0
-9.02056e-017 1.63064e-016 0
-3.1225e-017 -3.46945e-017 0
-4.16334e-017 -1.04083e-017 0
-1.73472e-016 -1.73472e-017 0
-2.42861e-017 0 0
4.85723e-017 1.04083e-016 0
1.38778e-017 1.00614e-016 0
-1.45717e-016 1.17961e-016 0
-9.71445e-017 1.49186e-016 0
-1.80411e-016 7.28584e-017 0
4.85723e-017 1.14492e-016 0
1.14492e-016 1.38778e-016 0
1.31839e-016 2.15106e-016 0
-2.77556e-017 -3.46945e-017 0
-1.17961e-016 1.66533e-016 0
-9.02056e-017 1.63064e-016 0
-2.08167e-017 1.31839e-016 0
-1.38778e-016 9.02056e-017 0
-4.85723e-017 1.45717e-016 0
-1.17961e-016 -9.71445e-017 0
1.73472e-017 -4.85723e-017 0
-3.1225e-017 -6.59195e-017 0
-1.73472e-017 1.73472e-016 0
-7.28584e-017 -3.1225e-017 0
-8.67362e-017 2.04697e-016 0
2.42861e-017 -5.20417e-017 0
-1.21431e-016 -1.38778e-016 0
-2.18575e-016 -3.46945e-017 0
7.28584e-017 1.38778e-016 0
6.59195e-017 -4.51028e-017 0
5.89806e-017 -9.02056e-017 0
2.08167e-017 -1.249e-016 0
6.59195e-017 -4.51028e-017 0
6.93889e-018 -3.81639e-017 0
-5.20417e-017 -4.16334e-017 0
1.14492e-016 -6.59195e-017 0
-9.71445e-017 -6.93889e-018 0
3.1225e-017 -2.08167e-017 0
-1.9082e-016 1.11022e-016 0
-1.66533e-016 -3.81639e-017 0
0 1.76942e-016 0
1.11022e-016 1.31839e-016 0
-1.21431e-016 1.31839e-016 0
-3.46945e-018 -1.9082e-016 0
1.38778e-016 -7.97973e-017 0
-4.51028e-017 3.81639e-017 0
3.81639e-017 -1.31839e-016 0
3.46945e-018 -8.67362e-017 0
-3.81639e-017 -3.81639e-017 0
3.46945e-018 7.28584e-017 0
3.46945e-017 -5.20417e-017 0
-2.77556e-017 -1.07553e-016 0
-9.36751e-017 -1.2837e-016 0
1.11022e-016 -1.35308e-016 0
1.17961e-016 -3.81639e-017 0
-3.1225e-017 -6.93889e-018 0
3.46945e-018 -3.26128e-016 0
-6.245e-017 -1.59595e-016 0
4.85723e-017 -7.63278e-017 0
-4.16334e-017 -6.245e-017 0
1.49186e-016 -2.08167e-017 0
-3.46945e-017 -2.08167e-017 0
6.245e-017 6.93889e-018 0
1.00614e-016 -2.87964e-016 0
3.46945e-017 -3.64292e-016 0
1.21431e-016 -2.70617e-016 0
9.36751e-017 -2.63678e-016 0
1.38778e-016 -5.20417e-017 0
-2.08167e-017 2.77556e-017 0
1.04083e-017 5.20417e-017 0
-2.77556e-017 -1.94289e-016 0
-4.85723e-017 -2.04697e-016 0
-1.97758e-016 2.77556e-017 0
5.55112e-017 -2.08167e-017 0
2.08167e-017 2.77556e-017 0
1.49186e-016 2.42861e-017 0
6.93889e-017 1.2837e-016 0
-5.55112e-017 1.17961e-016 0
1.14492e-016 1.249e-016 0
-6.59195e-017 2.498e-016 0
1.00614e-016 -2.08167e-017 0
2.498e-016 1.73472e-017 0
-6.93889e-018 -2.08167e-016 0
-7.97973e-017 3.46945e-018 0
-5.55112e-017 -3.29597e-016 0
8.67362e-017 -1.04083e-016 0
6.245e-017 -2.35922e-016 0
1.73472e-017 -9.71445e-017 0
4.85723e-017 -1.31839e-016 0
-1.38778e-016 -3.46945e-017 0
-9.02056e-017 1.38778e-017 0
-9.02056e-017 -7.28584e-017 0
2.77556e-017 -6.245e-017 0
1.35308e-016 1.73472e-017 0
2.42861e-017 -3.46945e-018 0
-5.20417e-017 -4.51028e-017 0
-8.32667e-017 -2.18575e-016 0
8.32667e-017 -1.38778e-017 0
1.17961e-016 -5.55112e-017 0
-2.08167e-017 -6.93889e-018 0
-3.1225e-017 -1.04083e-016 0
-7.63278e-017 -4.51028e-017 0
-6.93889e-018 2.08167e-017 0
-9.71445e-017 2.42861e-017 0
-2.77556e-017 1.04083e-017 0
-9.71445e-017 -1.45717e-016 0
5.55112e-017 5.20417e-017 0
2.42861e-017 6.59195e-017 0
1.94289e-016 -3.46945e-017 0
-6.93889e-018 -9.02056e-017 0
1.38778e-017 1.38778e-017 0
5.55112e-017 3.46945e-017 0
4.16334e-017 1.66533e-016 0
2.08167e-016 5.89806e-017 0
2.01228e-016 1.76942e-016 0
1.04083e-017 1.04083e-017 0
4.85723e-017 9.71445e-017 0
1.42247e-016 3.46945e-017 0
2.18575e-016 -6.93889e-017 0
1.42247e-016 -2.42861e-017 0
1.249e-016 -2.08167e-017 0
1.94289e-016 -2.32453e-016 0
1.04083e-017 0 0
1.35308e-016 -5.89806e-017 0
9.71445e-017 -6.93889e-018 0
-3.1225e-017 -2.11636e-016 0
-3.81639e-017 -3.1225e-017 0
5.55112e-017 -1.07553e-016 0
7.63278e-017 3.81639e-017 0
-5.20417e-017 -1.38778e-017 0
3.81639e-017 -5.55112e-017 0
1.11022e-016 -2.42861e-017 0
7.28584e-017 -1.42247e-016 0
7.28584e-017 7.63278e-017 0
-1.35308e-016 7.63278e-017 0
1.80411e-016 6.59195e-017 0
-1.04083e-017 -8.32667e-017 0
3.81639e-017 -6.245e-017 0
-3.81639e-017 4.16334e-017 0
-1.73472e-017 -1.45717e-016 0
-6.93889e-018 -9.36751e-017 0
-2.77556e-017 6.245e-017 0
-1.249e-016 1.42247e-016 0
1.04083e-016 6.93889e-017 0
1.04083e-016 -1.38778e-017 0
-7.63278e-017 4.85723e-017 0
6.93889e-017 4.51028e-017 0
-1.42247e-016 4.85723e-017 0
4.16334e-017 5.55112e-017 0
-3.46945e-018 2.46331e-016 0
1.04083e-017 -1.00614e-016 0
-4.85723e-017 1.07553e-016 0
4.16334e-017 -5.55112e-017 0
6.93889e-017 0 0
-3.1225e-017 -5.89806e-017 0
-7.63278e-017 2.77556e-017 0
-1.38778e-017 -7.63278e-017 0
4.16334e-017 1.52656e-016 0
1.31839e-016 -7.97973e-017 0
1.49186e-016 -7.28584e-017 0
-3.1225e-017 0 0
1.52656e-016 -1.76942e-016 0
1.73472e-016 -4.85723e-017 0
4.85723e-017 6.245e-017 0
-8.32667e-017 2.77556e-017 0
1.249e-016 -2.08167e-017 0
1.49186e-016 6.93889e-017 0
1.76942e-016 -6.93889e-018 0
7.63278e-017 -5.89806e-017 0
5.89806e-017 -1.04083e-016 0
1.59595e-016 -5.20417e-017 0
-5.55112e-017 -7.97973e-017 0
9.36751e-017 -1.49186e-016 0
8.32667e-017 3.46945e-017 0
6.93889e-018 5.55112e-017 0
3.1225e-017 -1.63064e-016 0
1.14492e-016 6.245e-017 0
7.97973e-017 1.35308e-016 0
6.59195e-017 1.11022e-016 0
9.02056e-017 8.32667e-017 0
2.18575e-016 -6.59195e-017 0
1.14492e-016 -1.70003e-016 0
1.38778e-017 -4.85723e-017 0
1.00614e-016 1.2837e-016 0
-2.77556e-017 -1.38778e-017 0
-2.42861e-017 6.245e-017 0
9.36751e-017 3.81639e-017 0
-6.93889e-017 2.77556e-017 0
-2.77556e-017 2.77556e-017 0
-1.31839e-016 3.1225e-017 0
0 6.93889e-018 0
1.00614e-016 -4.51028e-017 0
3.46945e-018 1.66533e-016 0
1.04083e-016 4.85723e-017 0
-3.81639e-017 0 0
8.32667e-017 4.16334e-017 0
-6.93889e-018 -1.9082e-016 0
-1.38778e-017 -6.245e-017 0
7.97973e-017 -2.04697e-016 0
-2.18575e-016 -1.83881e-016 0
-9.36751e-017 -1.8735e-016 0
-1.07553e-016 -2.08167e-016 0
3.46945e-018 -1.63064e-016 0
1.70003e-016 -2.08167e-017 0
3.46945e-018 1.04083e-017 0
-3.46945e-018 -2.42861e-017 0
-4.16334e-017 4.51028e-017 0
1.38778e-017 2.08167e-017 0
1.59595e-016 9.71445e-017 0
2.42861e-017 -2.42861e-017 0
-3.46945e-018 -1.04083e-017 0
0 1.76942e-016 0
-6.245e-017 5.89806e-017 0
3.46945e-018 3.46945e-018 0
6.93889e-017 1.21431e-016 0
-1.04083e-017 6.59195e-017 0
-6.59195e-017 -5.55112e-017 0
-5.55112e-017 -5.55112e-017 0
-6.245e-017 1.73472e-017 0
1.80411e-016 9.36751e-017 0
-6.93889e-018 -1.14492e-016 0
-4.85723e-017 -1.31839e-016 0
5.55112e-017 -6.59195e-017 0
1.9082e-016 -1.31839e-016 0
-5.20417e-017 9.36751e-017 0
-1.35308e-016 -9.71445e-017 0
7.63278e-017 -1.00614e-016 0
2.01228e-016 -3.81639e-017 0
3.1225e-017 -5.55112e-017 0
1.07553e-016 -3.1225e-016 0
-2.42861e-017 -1.83881e-016 0
6.93889e-018 -3.26128e-016 0
2.77556e-017 -1.94289e-016 0
1.31839e-016 4.51028e-017 0
3.1225e-017 3.46945e-017 0
-9.02056e-017 -2.42861e-017 0
1.38778e-016 -7.28584e-017 0
6.245e-017 -4.85723e-017 0
3.81639e-017 -7.28584e-017 0
-9.36751e-017 8.67362e-017 0
-1.97758e-016 -1.38778e-016 0
9.02056e-017 -6.245e-017 0
3.46945e-018 -9.02056e-017 0
6.245e-017 -1.73472e-016 0
5.89806e-017 -9.36751e-017 0
-1.2837e-016 7.63278e-017 0
2.42861e-017 4.51028e-017 0
-1.38778e-016 2.22045e-016 0
-1.00614e-016 6.93889e-018 0
2.77556e-017 1.73472e-017 0
-1.21431e-016 6.59195e-017 0
-1.73472e-017 -1.63064e-016 0
3.46945e-017 6.245e-017 0
8.32667e-017 3.46945e-018 0
8.67362e-017 -3.1225e-017 0
2.08167e-017 -5.55112e-017 0
1.70003e-016 -5.20417e-017 0
1.9082e-016 6.93889e-017 0
-3.46945e-017 -3.46945e-017 0
-4.85723e-017 1.38778e-017 0
-4.85723e-017 2.77556e-017 0
-1.73472e-017 1.31839e-016 0
-5.89806e-017 6.93889e-018 0
5.89806e-017 1.38778e-016 0
6.59195e-017 9.36751e-017 0
9.36751e-017 3.1225e-017 0
2.77556e-017 8.32667e-017 0
2.08167e-017 1.8735e-016 0
-4.16334e-017 1.59595e-016 0
5.89806e-017 6.93889e-018 0
-7.63278e-017 -1.38778e-016 0
-1.14492e-016 -2.08167e-017 0
-1.35308e-016 1.49186e-016 0
1.11022e-016 6.93889e-018 0
1.17961e-016 4.51028e-017 0