# vtk DataFile Version 4.0
SiwiRVisFile
ASCII
DATASET STRUCTURED_POINTS
DIMENSIONS 50 50 1
ORIGIN 0 0 0
SPACING 1 1 1
POINT_DATA 2500

SCALARS flags double 1
LOOKUP_TABLE default
1
1
1
1
1
1
1
1
1
1
1
1
1
1
1
1
1
1
1
1
1
1
1
1
1
1
1
1
1
1
1
1
1
1
1
1
1
1
1
1
1
1
1
1
1
1
1
1
1
1
1
1
1
1
1
1
1
1
1
1
1
1
1
1
1
1
1
1
1
1
1
1
1
1
1
1
1
1
1
1
1
1
1
1
1
1
1
1
1
1
1
1
1
1
1
1
1
1
1
1
1
1
1
1
1
1
1
1
1
1
1
1
1
1
1
1
1
1
1
1
1
1
1
1
1
1
1
1
1
1
1
1
1
1
1
1
1
1
1
1
1
1
1
1
1
1
1
1
1
1
1
1
1
1
1
1
1
1
1
1
1
1
1
1
1
1
1
1
1
1
1
1
1
1
1
1
1
1
1
1
1
1
1
1
1
1
1
1
1
1
1
1
1
1
1
1
1
1
1
1
1
1
1
1
1
1
1
1
1
1
1
1
1
1
1
1
1
1
1
1
1
1
1
1
1
1
1
1
1
1
1
1
1
1
1
1
1
1
1
1
1
1
1
1
1
1
1
1
1
1
1
1
1
1
1
1
1
1
1
1
1
1
1
1
1
1
1
1
1
1
1
1
1
1
1
1
1
1
1
1
1
1
1
1
1
1
1
1
1
1
1
1
1
1
1
1
1
1
1
1
1
1
1
1
1
1
1
1
1
1
1
1
1
1
1
1
1
1
1
1
1
1
1
1
1
1
1
1
1
1
1
1
1
1
1
1
1
1
1
1
1
1
1
1
1
1
1
1
1
1
1
1
1
1
1
1
1
1
1
1
1
1
1
1
1
1
1
1
1
1
1
1
1
1
1
1
1
1
1
1
1
1
1
1
1
1
1
1
1
1
1
1
1
1
1
1
1
1
1
1
1
1
1
1
1
1
1
1
1
1
1
1
1
1
1
1
1
1
1
1
1
1
1
1
1
1
1
1
1
1
1
1
1
1
1
1
1
1
1
1
1
1
1
1
1
1
1
1
1
1
1
1
1
1
1
1
1
1
1
1
1
1
1
1
1
1
1
1
1
1
1
1
1
1
1
1
1
1
1
1
1
1
1
1
1
1
1
1
1
1
1
1
1
1
1
1
1
1
1
1
1
1
1
1
1
1
1
1
1
1
1
1
1
1
1
1
1
1
1
1
1
1
1
1
1
1
1
1
1
1
1
1
1
1
1
1
1
1
1
1
1
1
1
1
1
1
1
1
1
1
1
1
1
1
1
1
1
1
1
1
1
1
1
1
1
1
1
1
1
1
1
1
1
1
1
1
1
1
1
1
1
1
1
1
1
1
1
1
1
1
1
1
1
1
1
1
1
1
1
1
1
1
1
1
1
1
1
1
1
1
1
1
1
1
1
1
1
1
1
1
1
1
1
1
1
1
1
1
1
1
1
1
1
1
1
1
1
1
1
1
1
1
1
1
1
1
1
1
1
1
1
1
1
1
1
1
1
1
1
1
1
1
1
1
1
1
1
1
1
1
1
1
1
1
1
1
1
1
1
1
1
1
1
1
1
1
1
1
1
1
1
1
1
1
1
1
1
1
1
1
1
1
1
1
1
1
1
1
1
1
1
1
1
1
1
1
1
1
1
1
1
1
1
1
1
1
1
1
1
1
1
1
1
1
1
1
1
1
1
1
1
1
1
1
1
1
1
1
1
1
1
1
1
1
1
1
1
1
1
1
1
1
1
1
1
1
1
1
1
1
1
1
1
1
1
1
1
1
1
1
1
1
1
1
1
1
1
1
1
1
1
1
1
1
1
1
1
1
1
1
1
1
1
1
1
1
1
1
1
1
1
1
1
1
1
1
1
1
1
1
1
1
1
1
1
1
1
1
1
1
1
1
1
1
1
1
1
1
1
1
1
1
1
1
1
1
1
1
1
1
1
1
1
1
1
1
1
1
1
1
1
1
1
1
1
1
1
1
1
1
1
1
1
1
1
1
1
1
1
1
1
1
1
1
1
1
1
1
1
1
1
1
1
1
1
1
1
1
1
1
1
1
1
1
1
1
1
1
1
1
1
1
1
1
1
1
1
1
1
1
1
1
1
1
1
1
1
1
1
1
1
1
1
1
1
1
1
1
1
1
1
1
1
1
1
1
1
1
1
1
1
1
1
1
1
1
1
1
1
1
1
1
1
1
1
1
1
1
1
1
1
1
1
1
1
1
1
1
1
1
1
1
1
1
1
1
1
1
1
1
1
1
1
1
1
1
1
1
1
1
1
1
1
1
1
1
1
1
1
1
1
1
1
1
1
1
1
1
1
1
1
1
1
1
1
1
1
1
1
1
1
1
1
1
1
1
1
1
1
1
1
1
1
1
1
1
1
1
1
1
1
1
1
1
1
1
1
1
1
1
1
1
1
1
1
1
1
1
1
1
1
1
1
1
1
1
1
1
1
1
1
1
1
1
1
1
1
1
1
1
1
1
1
1
1
1
1
1
1
1
1
1
1
1
1
1
1
1
1
1
1
1
1
1
1
1
1
1
1
1
1
1
1
1
1
1
1
1
1
1
1
1
1
1
1
1
1
1
1
1
1
1
1
1
1
1
1
1
1
1
1
1
1
1
1
1
1
1
1
1
1
1
1
1
1
1
1
1
1
1
1
1
1
1
1
1
1
1
1
1
1
1
1
1
1
1
1
1
1
1
1
1
1
1
1
1
1
1
1
1
1
1
1
1
1
1
1
1
1
1
1
1
1
1
1
1
1
1
1
1
1
1
1
1
1
1
1
1
1
1
1
1
1
1
1
1
1
1
1
1
1
1
1
1
1
1
1
1
1
1
1
1
1
1
1
1
1
1
1
1
1
1
1
1
1
1
1
1
1
1
1
1
1
1
1
1
1
1
1
1
1
1
1
1
1
1
1
1
1
1
1
1
1
1
1
1
1
1
1
1
1
1
1
1
1
1
1
1
1
1
1
1
1
1
1
1
1
1
1
1
1
1
1
1
1
1
1
1
1
1
1
1
1
1
1
1
1
1
1
1
1
1
1
1
1
1
1
1
1
1
1
1
1
1
1
1
1
1
1
1
1
1
1
1
1
1
1
1
1
1
1
1
1
1
1
1
1
1
1
1
1
1
1
1
1
1
1
1
1
1
1
1
1
1
1
1
1
1
1
1
1
1
1
1
1
1
1
1
1
1
1
1
1
1
1
1
1
1
1
1
1
1
1
1
1
1
1
1
1
1
1
1
1
1
1
1
1
1
1
1
1
1
1
1
1
1
1
1
1
1
1
1
1
1
1
1
1
1
1
1
1
1
1
1
1
1
1
1
1
1
1
1
1
1
1
1
1
1
1
1
1
1
1
1
1
1
1
1
1
1
1
1
1
1
1
1
1
1
1
1
1
1
1
1
1
1
1
1
1
1
1
1
1
1
1
1
1
1
1
1
1
1
1
1
1
1
1
1
1
1
1
1
1
1
1
1
1
1
1
1
1
1
1
1
1
1
1
1
1
1
1
1
1
1
1
1
1
1
1
1
1
1
1
1
1
1
1
1
1
1
1
1
1
1
1
1
1
1
1
1
1
1
1
1
1
1
1
1
1
1
1
1
1
1
1
1
1
1
1
1
1
1
1
1
1
1
1
1
1
1
1
1
1
1
1
1
1
1
1
1
1
1
1
1
1
1
1
1
1
1
1
1
1
1
1
1
1
1
1
1
1
1
1
1
1
1
1
1
1
1
1
1
1
1
1
1
1
1
1
1
1
1
1
1
1
1
1
1
1
1
1
1
1
1
1
1
1
1
1
1
1
1
1
1
1
1
1
1
1
1
1
1
1
1
1
1
1
1
1
1
1
1
1
1
1
1
1
1
1
1
1
1
1
1
1
1
1
1
1
1
1
1
1
1
1
1
1
1
1
1
1
1
1
1
1
1
1
1
1
1
1
1
1
1
1
1
1
1
1
1
1
1
1
1
1
1
1
1
1
1
1
1
1
1
1
1
1
1
1
1
1
1
1
1
1
1
1
1
1
1
1
1
1
1
1
1
1
1
1
1
1
1
1
1
1
1
1
1
1
1
1
1
1
1
1
1
1
1
1
1
1
1
1
1
1
1
1
1
1
1
1
1
1
1
1
1
1
1
1
1
1
1
1
1
1
1
1
1
1
1
1
1
1
1
1
1
1
1
1
1
1
1
1
1
1
1
1
1
1
1
1
1
1
1
1
1
1
1
1
1
1
1
1
1
1
1
1
1
1
1
1
1
1
1
1
1
1
1
1
1
1
1
1
1
1
1
1
1
1
1
1
1
1
1
1
1
1
1
1
1
1
1
1
1
1
1
1
1
1
1
1
1
1
1
1
1
1
1
1
1
1
1
1
1
1
1
1
1
1
1
1
1
1
1
1
1
1
1
1
1
1
1
1
1
1
1
1
1
1
1
1
1
1
1
1
1
1
1
1
1
1
1
1
1
1
1
1
1
1
1
1
1
1
1
1
1
1
1
1
1
1
1
1
1
1
1
1
1
1
1
1
1
1
1
1
1
1
1
1
1
1
1
1
1
1
1
1
1
1
1
1
1
1
1
1
1
1
1
1
1
1
1
1
1
1
1
1
1
1
1
1
1
1
1
1
1
1
1
1
1
1
1
1
1
1
1
1
1
1
1
1
1
1
1
1
1
1
1
1
1
1
1
1
1
1
1
1
1
1
1
1
1
1
1
1
1
1
1
1
1
1
1
1
1
1
1
1
1
1
1
1
1
1
1
1
1
1
1
1
1
1
1
1
1
1
1
1
1
1
1
1
1
1
1
1
1
1
1
1
1
1
1
1
1
1
1
1
1
1
1
1
1
1
1
1
1
1
1
1
1
1
1
1
1
1
1
1
1
1
1
1
1
1
1
1
1
1
1
1
1
1
1
1
1
1
1
1
1
1
1
1
1
1
1
1
1
1
1
1
1
1
1
1
1
1
1
1
1
1
1
1
1
1
1
1
1
1
1
1
1
1
1
1
1
1
1
1
1
1
1
1
1
1
1
1
1
1
1
1
1
1
1
1
1
1
1
1
1
1
1
1
1
1
1
1
1
1
1
1
1
1
1
1
1
1
1
1
1
1
1
1
1
1
1
1
1
1
1
1
1
1
1
1
1
1
1
1
1
1
1
1
1
1
1
1
1
1
1
1
1
1
1
1
1
1
1
1
1
1
1
1
1
1
1
1
1
1
1
1
1
1
1
1
1
1
1
1
1
1
1
1
1
1
1
1
1
1
1
1
1
1
1
1
1
1
1
1
1
1
1
1
1
1
1
1
1
1
1
1
1
1
1
1
1
1
1
1
1
1
1
1
1
1
1
1
1
1
1
1
1
1
1
1
1
1
1
1
1
1
1
1
1
1
1
1
1
1
1
1
1
1
1
1
1
1
1
1
1
1
1
1
1
1
1
1
1
1
1
1
1
1
1
1
1
1
1
1
1
1
1
1
1
1
1
1
1
1
1
1
1
1
1
1
1
1
1
1
1
1
1
1
1
1
1
1
1
1
1
1
1
1
1
1
1
1
1
1
1
1
1
1
1
1
1
1
1
1
1
1
1
1
1
1
1
1
1
1
1
1
1
1
1
1
1
1
1
1
1
1
1
1
1
1
1
1
1
1
1
1
1

SCALARS density double 1
LOOKUP_TABLE default
1
1
1
1
1
1
1
1
1
1
1
1
1
1
1
1
1
1
1
1
1
1
1
1
1
1
1
1
1
1
1
1
1
1
1
1
1
1
1
1
1
1
1
1
1
1
1
1
1
1
1
1
1
1
1
1
1
1
1
1
1
1
1
1
1
1
1
1
1
1
1
1
1
1
1
1
1
1
1
1
1
1
1
1
1
1
1
1
1
1
1
1
1
1
1
1
1
1
1
1
1
1
1
1
1
1
1
1
1
1
1
1
1
1
1
1
1
1
1
1
1
1
1
1
1
1
1
1
1
1
1
1
1
1
1
1
1
1
1
1
1
1
1
1
1
1
1
1
1
1
1
1
1
1
1
1
1
1
1
1
1
1
1
1
1
1
1
1
1
1
1
1
1
1
1
1
1
1
1
1
1
1
1
1
1
1
1
1
1
1
1
1
1
1
1
1
1
1
1
1
1
1
1
1
1
1
1
1
1
1
1
1
1
1
1
1
1
1
1
1
1
1
1
1
1
1
1
1
1
1
1
1
1
1
1
1
1
1
1
1
1
1
1
1
1
1
1
1
1
1
1
1
1
1
1
1
1
1
1
1
1
1
1
1
1
1
1
1
1
1
1
1
1
1
1
1
1
1
1
1
1
1
1
1
1
1
1
1
1
1
1
1
1
1
1
1
1
1
1
1
1
1
1
1
1
1
1
1
1
1
1
1
1
1
1
1
1
1
1
1
1
1
1
1
1
1
1
1
1
1
1
1
1
1
1
1
1
1
1
1
1
1
1
1
1
1
1
1
1
1
1
1
1
1
1
1
1
1
1
1
1
1
1
1
1
1
1
1
1
1
1
1
1
1
1
1
1
1
1
1
1
1
1
1
1
1
1
1
1
1
1
1
1
1
1
1
1
1
1
1
1
1
1
1
1
1
1
1
1
1
1
1
1
1
1
1
1
1
1
1
1
1
1
1
1
1
1
1
1
1
1
1
1
1
1
1
1
1
1
1
1
1
1
1
1
1
1
1
1
1
1
1
1
1
1
1
1
1
1
1
1
1
1
1
1
1
1
1
1
1
1
1
1
1
1
1
1
1
1
1
1
1
1
1
1
1
1
1
1
1
1
1
1
1
1
1
1
1
1
1
1
1
1
1
1
1
1
1
1
1
1
1
1
1
1
1
1
1
1
1
1
1
1
1
1
1
1
1
1
1
1
1
1
1
1
1
1
1
1
1
1
1
1
1
1
1
1
1
1
1
1
1
1
1
1
1
1
1
1
1
1
1
1
1
1
1
1
1
1
1
1
1
1
1
1
1
1
1
1
1
1
1
1
1
1
1
1
1
1
1
1
1
1
1
1
1
1
1
1
1
1
1
1
1
1
1
1
1
1
1
1
1
1
1
1
1
1
1
1
1
1
1
1
1
1
1
1
1
1
1
1
1
1
1
1
1
1
1
1
1
1
1
1
1
1
1
1
1
1
1
1
1
1
1
1
1
1
1
1
1
1
1
1
1
1
1
1
1
1
1
1
1
1
1
1
1
1
1
1
1
1
1
1
1
1
1
1
1
1
1
1
1
1
1
1
1
1
1
1
1
1
1
1
1
1
1
1
1
1
1
1
1
1
1
1
1
1
1
1
1
1
1
1
1
1
1
1
1
1
1
1
1
1
1
1
1
1
1
1
1
1
1
1
1
1
1
1
1
1
1
1
1
1
1
1
1
1
1
1
1
1
1
1
1
1
1
1
1
1
1
1
1
1
1
1
1
1
1
1
1
1
1
1
1
1
1
1
1
1
1
1
1
1
1
1
1
1
1
1
1
1
1
1
1
1
1
1
1
1
1
1
1
1
1
1
1
1
1
1
1
1
1
1
1
1
1
1
1
1
1
1
1
1
1
1
1
1
1
1
1
1
1
1
1
1
1
1
1
1
1
1
1
1
1
1
1
1
1
1
1
1
1
1
1
1
1
1
1
1
1
1
1
1
1
1
1
1
1
1
1
1
1
1
1
1
1
1
1
1
1
1
1
1
1
1
1
1
1
1
1
0.999998
0.999999
0.999999
0.999999
0.999999
0.999999
0.999999
0.999999
1
1
1
1
1
1
1
1
1
1
1
1
1
1
1
1
1
1
1
1
1
1
0.999999
0.999999
0.999999
0.999999
0.999999
0.999999
0.999999
0.999999
0.999999
0.999999
1
1
1
1
1
1
1
1
1
1
1
1.00001
1
1
1
1
0.999999
0.999999
0.999999
0.999999
0.999999
0.999999
0.999999
0.999999
1
1
1
1
1
1
1
1
1
1
1
1
0.999999
0.999998
0.999996
0.999998
1
0.999998
0.999998
0.999999
1
1
1
1
1
1
1
1
1
1
1
1
1
1
0.999997
1
1
0.999992
1
1
1
1
1
1
1
1
1
1
1
0.999997
0.999998
1
0.999994
0.999994
1
1
0.999994
1
1.00001
0.999999
0.999996
1
1
0.999991
0.999997
1.00001
0.999999
0.999996
1.00001
1.00001
1
1
1
1
1
1
1
0.999999
0.999999
0.999998
0.999998
0.999998
0.999998
0.999999
0.999996
0.999999
1.00001
0.999999
1
0.999999
0.999999
0.999999
0.999999
1
1
1
1
0.999999
1.00001
1
0.999984
1
1.00002
0.999979
0.999975
1.00002
1
0.999977
0.999995
1.00001
1
0.999999
0.999993
1.00001
1.00002
0.999997
0.999984
1.00003
1.00002
0.999981
0.999999
1.00001
0.999993
0.999992
0.999998
0.999994
0.999995
0.999996
0.999996
0.999997
0.999998
0.999998
0.999999
0.999997
1.00001
0.999994
0.999991
1
0.999992
0.999999
0.999996
0.999997
0.999995
0.999997
0.999995
0.999992
1.00001
0.999991
0.999974
1.00004
1.00003
0.999937
1.00001
1.00008
0.999967
0.999957
1.00005
1
0.999951
1
1.00002
0.999979
0.999997
1.00005
0.999997
0.999951
1.00004
1.00003
0.99992
0.999988
1.00006
0.99997
0.999963
1.00002
1.00001
0.999993
1.00001
1.00001
1.00001
1.00001
1.00001
1.00001
1
1
1.00001
1
0.999992
1.00001
0.999995
1
0.999999
1
0.999996
0.999999
1.00001
0.999964
0.999989
1.00007
0.999954
0.999892
1.00011
1.00008
0.999856
1.00002
1.00015
0.999939
0.99994
1.00008
1.00001
0.999953
0.999989
1.00001
1.00005
0.99999
0.999917
1.00006
1.00006
0.999853
0.99998
1.00014
0.999926
0.999896
1.00011
1.00005
0.999937
1.00002
1.00004
0.99999
1
1.00001
0.999997
1
0.999996
1.00001
0.999968
1.00001
0.999989
0.999976
1
1
0.999997
1.00002
1.00001
0.999962
1.00006
1.00007
0.999859
0.99999
1.00024
0.999917
0.999779
1.00019
1.00011
0.999746
1.00002
1.00019
0.999886
0.999932
1.00012
0.999988
0.999929
1.00007
1.00001
0.999877
1.00006
1.00012
0.999821
0.999972
1.00026
0.999901
0.999818
1.00021
1.00008
0.999764
1.00001
1.00013
0.999923
0.999931
1.00003
0.999981
0.999978
0.999997
0.999993
1.00001
1.00001
1.00003
0.999966
0.999979
0.999988
1.00002
0.999976
0.999982
1.0001
0.999948
0.999836
1.00021
1.00018
0.999683
0.999974
1.00036
0.999881
0.999708
1.00025
1.0001
0.999668
1.00004
1.00022
0.999856
0.99992
1.00011
1.00005
0.999952
0.999884
1.00007
1.00015
0.999794
0.999948
1.00033
0.99991
0.99974
1.00027
1.00012
0.999647
1.00002
1.0003
0.999821
0.999805
1.00016
1.00005
0.999908
1.00003
1.00002
0.999996
0.999998
1.00005
1.00002
0.99986
0.999944
0.999907
1.00001
1.00005
0.999821
0.99999
1.00031
0.999827
0.999619
1.0003
1.00019
0.99958
0.99999
1.00035
0.999841
0.999729
1.00029
1.00015
0.999659
1.00005
1.00022
0.999844
0.999988
1.00013
0.99987
1
1.00016
0.999795
0.99992
1.00033
0.999873
0.999697
1.00025
1.00017
0.999668
1
1.00041
0.999836
0.999728
1.00037
1.00016
0.999708
1.00001
1.00017
0.999949
0.999994
1.00007
1.00006
1.00012
0.999729
0.999892
0.999806
0.999723
1.00017
1.0001
0.999523
0.99999
1.00048
0.999774
0.999645
1.00033
1.00007
0.999639
1.00005
1.00032
0.999917
0.999746
1.00025
1.00018
0.999649
1.00004
1.00026
0.999849
0.99984
1.00014
1.00016
0.999759
0.999927
1.00035
0.999863
0.999741
1.00023
1.00011
0.999698
0.999929
1.00034
0.999939
0.999669
1.00031
1.00019
0.999541
1
1.00042
0.999888
0.999848
1.00026
1.0002
1.00009
1.00029
0.99972
0.999708
0.999972
0.999518
0.999496
1.00037
1.00016
0.999491
1.0001
1.00038
0.999781
0.999859
1.00033
1.00007
0.999738
1
1.00015
0.999996
0.999718
1.00022
1.00017
0.999654
1.00006
1.00012
0.999876
1.00013
0.999892
0.999908
1.00035
0.999876
0.999756
1.00025
1.00002
0.999851
0.999971
1.00023
0.999929
0.999666
1.0001
1.0002
0.999637
0.999909
1.00045
0.999832
0.999677
1.00046
1.00044
1.00004
1.00029
1.00026
0.999924
0.998863
0.999577
1.00004
0.999195
0.999367
1.00019
0.999963
0.999585
1.00013
1.0002
0.999855
0.999828
1.00015
0.99999
0.999846
0.999974
1.00009
0.999998
0.999735
1.00025
1.0002
0.999602
1.00012
1.00031
0.999719
0.99984
1.00039
0.999854
0.999713
1.00022
1.00003
0.999907
1.00001
1.00014
1.00003
0.999866
1.00017
1.00015
0.99981
0.999872
1.00038
1.00001
0.999823
1.00058
1.00067
0.999946
1.00037
1.00103
1.00002
0.999527
0.99859
0.998488
0.99904
0.999339
0.998937
0.999188
0.999891
0.999753
0.999658
0.999903
1.00004
0.999999
0.999847
1.00029
0.999942
0.999873
1.00005
1.00013
0.999991
0.999718
1.00025
1.00014
0.999767
0.999981
0.999992
1.00023
0.999919
0.999719
1.00024
1.00005
0.999884
0.999941
1.00011
1.00009
0.999708
1.00012
1
0.999906
1.00007
1.00031
1.00017
1.00004
1.00072
1.00089
1.00054
1.00087
1.0013
1.00112
1.0004
0.997524
0.999228
0.998878
0.997597
0.998489
0.998788
0.998685
0.998955
0.999624
0.999788
0.999784
1.00002
1.00017
0.999861
0.99977
1.00048
0.999966
0.999811
1.00005
1.00004
0.999998
0.999719
1.00033
0.999952
0.9996
1.00037
1.00012
0.999644
1.00023
1.00005
0.999966
0.999917
1.00016
1.00006
0.999519
1.00015
1.00014
0.999787
0.999941
1.00019
1.00012
1.00023
1.00093
1.00111
1.00095
1.00122
1.002
1.00084
1.00045
1.00203
0.997836
0.997788
0.997835
0.997392
0.997641
0.997648
0.998009
0.998218
0.99858
0.99957
0.999414
0.999436
0.999947
1.00028
0.999727
0.999611
1.00036
0.999885
0.999924
1.00001
1.00016
0.999971
0.999739
1.00022
1.00024
0.999816
0.999738
1.0002
1.00009
0.999843
0.999934
1.00005
1.00017
0.999637
1.00029
1.00033
0.999705
1
1.00053
1.00049
1.00032
1.00118
1.00152
1.00149
1.00188
1.00188
1.00192
1.00156
1.00181
1.00142
0.998382
0.995591
0.99706
0.997812
0.997323
0.996394
0.997348
0.997459
0.997261
0.99794
0.999656
0.999241
0.999614
0.999809
1.00024
0.999902
0.999709
1.0005
0.999877
0.999896
0.999936
1.00025
0.999826
0.999935
1.00035
0.999655
0.999994
1.00024
0.999787
1
1.00009
1.0002
0.999516
1.00019
1.00017
0.999692
1.0001
1.00038
1.00064
1.00012
1.00164
1.00226
1.00197
1.00202
1.00288
1.00207
1.00144
1.00204
1.00369
1.00113
0.996591
0.997303
0.99872
0.997311
0.997482
0.997317
0.997247
0.997331
0.99751
0.997397
0.997823
0.999443
0.999083
0.999828
0.999953
1.00034
0.999744
0.999677
1.00034
1.00003
0.999763
0.999968
1.00027
0.999811
0.9996
1.00033
1.00028
0.999787
0.999935
1.00022
1.00004
0.999652
1.00019
1.00029
0.999613
0.999978
1.00017
1.00066
1.00024
1.00168
1.00213
1.00184
1.00198
1.00213
1.00197
1.00185
1.00224
1.00089
1.00181
1.00283
0.996407
0.998822
0.998021
0.996015
0.998464
0.998929
0.996849
0.996594
0.997184
0.997139
0.996737
0.997855
0.999249
0.998934
0.99953
0.999642
1.0004
0.999761
0.999744
1.00029
1.00009
0.999809
1.00008
1.00019
0.999798
1.00023
0.999858
0.9998
1.00015
1
0.999691
1.00013
1.0003
0.999597
1.00024
1.00046
1.00081
1.00053
1.00163
1.00274
1.00225
1.00223
1.00291
1.00274
1.00095
1.00119
1.00343
1.00202
1.00082
1.00283
0.998496
0.996636
0.997456
0.997173
0.998588
0.996817
0.997831
0.997531
0.997353
0.996594
0.997719
0.996774
0.997768
0.999517
0.99931
0.999825
0.999929
1.00033
0.999852
0.999787
1.0002
1.00001
0.999702
1.00018
1.00046
0.999593
0.999697
1.00028
1.00012
0.999788
1.00012
1.00022
0.999672
0.999948
1.00017
1.00049
1.00019
1.0016
1.00272
1.00184
1.00285
1.00239
1.00211
1.00183
1.00291
1.00163
1.00232
1.00254
1.00352
1.00121
0.997629
0.994955
0.997749
0.997933
0.997365
0.996748
0.998038
0.999455
0.996465
0.99717
0.996953
0.997667
0.997016
0.99805
0.99962
0.999229
0.999621
0.999869
1.0003
0.999848
0.99981
1.00014
1.00002
0.999695
1.00006
0.999883
1.00031
1.00013
0.999812
1.00006
1.00021
0.999708
0.99999
1.00034
1.00058
1.00007
1.00143
1.00256
1.002
1.00248
1.00242
1.00313
1.00071
1.00158
1.0027
1.0027
1.00182
1.00179
1.00462
1.00274
0.996016
0.997164
0.997484
0.994561
0.996922
0.999041
0.996717
0.996179
0.998176
0.997434
0.996428
0.996371
0.997414
0.996797
0.998093
0.99973
0.999677
0.999525
0.999974
1.00033
1.00002
0.999855
1.00035
0.999914
0.999614
1.00036
1.00021
0.999574
0.999975
1.00005
0.999731
0.999867
1.00039
1.00025
1.00003
1.00142
1.00278
1.00227
1.00307
1.00337
1.00254
1.00161
1.00352
1.00349
1.00083
1.00283
1.00523
1.00257
1.00233
1.004
0.998646
0.998817
0.998126
0.996943
0.998164
0.997896
0.99726
0.99714
0.999045
0.998577
0.996546
0.997251
0.997111
0.998074
0.997689
0.998858
1.00003
0.999988
0.999529
0.999889
1.00016
0.999815
0.99987
1.00038
1.00004
1.00001
0.999557
0.999971
1.00031
0.999947
0.999964
1.0004
1.00005
0.999775
1.00069
1.00196
1.00167
1.00241
1.00252
1.00319
1.00172
1.00105
1.00258
1.00285
1.00242
1.00204
1.00294
1.00254
1.00145
1.00139
0.998743
0.993975
0.996159
0.999352
0.995623
0.994623
0.996719
0.999321
0.994793
0.995579
0.998794
0.996537
0.996024
0.99634
0.997605
0.997811
0.99871
1.00022
0.99992
0.999743
0.999922
1.00023
0.99961
0.999967
1.00022
0.999774
0.999939
1.00052
0.999895
0.999877
1.00016
1.00012
0.999564
1.00084
1.00191
1.00203
1.00317
1.00391
1.00364
1.0013
1.00379
1.00525
1.00084
1.00311
1.00534
1.00457
1.00088
1.00418
1.00602
1.00185
0.997336
0.994994
0.997852
0.996575
0.996996
0.996133
0.997108
0.997534
0.997611
0.998265
0.997945
0.997387
0.996589
0.997026
0.997464
0.998486
0.998753
0.999339
1.0003
1.00022
0.999825
1.00023
1.00022
0.999681
0.999898
1.00007
1.00038
0.999872
0.999532
1.00008
0.999898
0.999568
1.00031
1.00105
1.00125
1.00226
1.00289
1.00332
1.0027
1.00221
1.00172
1.00221
1.00258
1.003
1.00319
1.00324
1.00392
1.00236
1.00467
1.00328
0.994236
0.999362
0.998794
0.994839
0.997598
1.00058
0.996041
0.996602
0.998485
0.999008
0.99526
0.996802
0.998463
0.996387
0.996103
0.997548
0.999125
0.999069
0.999375
0.999942
0.999973
0.999628
1.0003
1.00013
0.999926
1.00009
0.999898
0.999527
1.00031
1.00027
0.99994
1.00031
1.00084
1.00069
1.00198
1.0038
1.00408
1.00198
1.00273
1.00478
1.00165
1.00149
1.00355
1.00445
0.999813
1.00249
1.00512
1.00153
1.00077
1.00599
0.998387
0.99414
0.994364
0.996804
0.994709
0.99559
0.996052
0.995964
0.995048
0.9957
0.997583
0.997015
0.995878
0.996208
0.996388
0.996793
0.998277
0.999583
0.99978
0.999723
1.00035
0.999823
0.999741
1.00015
1.00008
0.999932
0.999794
1.00023
1.00041
0.999549
0.999908
1.00016
1.00023
1.00128
1.0031
1.00374
1.0038
1.00404
1.00315
1.00244
1.00426
1.00482
1.00388
1.0042
1.00476
1.00586
1.00253
1.0058
1.00661
1.00154
0.998159
0.993812
0.997161
1.00109
0.996666
0.99546
0.999396
1.00066
0.995848
0.997886
1.00048
0.998584
0.99692
0.998115
0.998657
0.997231
0.997755
0.999438
1.00028
0.999801
0.999961
1.00036
0.999829
0.999844
0.999991
1
1.00015
1.00027
0.999566
0.999678
1.00027
0.999743
1.00017
1.00204
1.00329
1.00199
1.00201
1.00321
1.00206
0.999727
1.0016
1.00449
1.00017
1.0008
1.00441
1.00343
0.999141
1.00309
1.00618
1.00286
0.992704
0.99713
0.995989
0.993174
0.994352
0.998237
0.994752
0.994953
0.996681
0.996393
0.994855
0.994425
0.99674
0.995818
0.993987
0.995842
0.997445
0.998037
0.999175
0.999959
0.999552
1.00009
1.00023
1
0.999996
1.00001
1.00001
0.999724
0.999685
1.00049
1.0001
1.00035
1.00183
1.00281
1.00428
1.00638
1.00505
1.00338
1.00509
1.0051
1.00351
1.00328
1.00539
1.00595
1.0014
1.00547
1.00724
1.00423
1.00232
1.00867
0.997222
1.00018
0.998845
0.993741
0.997795
1.00011
0.995483
0.996654
0.999967
0.999492
0.997041
0.998624
0.999459
0.998089
0.997597
0.998822
0.99926
0.99941
0.999643
1.00051
1.0002
0.999779
1.00001
1.00005
1.00004
0.999966
0.999939
0.999945
1.0003
0.999958
0.999084
1.00008
1.00097
1.00121
1.00143
1.00292
1.00264
1.0009
1.00103
1.00321
1.00131
0.999767
1.0032
1.00488
1.00062
1.00241
1.00701
1.00181
1.00112
1.00315
0.998999
0.987986
0.99091
1.00131
0.994092
0.993961
0.996236
0.998383
0.994822
0.994865
0.997684
0.995723
0.99354
0.99544
0.996907
0.995573
0.995782
0.998656
0.999369
0.999396
1.00011
0.999981
0.999864
0.999952
0.999986
1.00001
1.00004
1.00014
1.00003
0.999595
1.00038
1.00094
1.00103
1.00431
1.00585
1.00434
1.0046
1.00651
1.00477
1.00231
1.00506
1.00602
1.00166
1.00339
1.00616
1.00666
0.99862
1.0093
1.01209
1.00021
0.99362
0.992035
0.998162
0.997062
0.995095
0.997896
0.997796
0.9982
0.997196
0.99855
0.998123
0.997328
0.99784
0.998321
0.997241
0.997323
0.998576
0.999692
0.999804
0.999409
0.999939
1.00033
1.00016
1.00008
0.999969
1.00003
0.999914
0.999831
0.999539
0.999829
1.0008
1.00072
1.00065
1.00229
1.00398
1.00387
1.00196
1.00175
1.00225
1.0014
1.00097
1.00326
1.0022
1.00237
1.00298
1.00591
1.00345
1.00305
1.00856
1.00782
0.988215
1.00706
0.994435
0.989479
0.995752
1.0003
0.993834
0.995168
0.999219
0.99848
0.994863
0.99572
0.99786
0.995598
0.994535
0.997495
0.999159
0.998288
0.999397
1.00036
1.00004
0.999917
0.999948
1.00002
0.999985
1.00001
0.99996
1.00003
1.00011
1.00006
0.999276
1.00017
1.00261
1.00173
1.00281
1.00663
1.00596
1.00216
1.00408
1.00595
1.00148
0.999981
1.00551
1.00729
0.998684
1.00508
1.01177
1.00414
0.993316
1.02405

VECTORS velocity double
-2.42861e-017 9.02056e-017 0
4.85723e-017 -5.55112e-017 0
-6.93889e-018 -3.46945e-018 0
-2.08167e-017 2.01228e-016 0
2.42861e-017 1.83881e-016 0
-4.16334e-017 2.77556e-017 0
1.17961e-016 1.35308e-016 0
1.38778e-016 1.38778e-017 0
7.28584e-017 1.2837e-016 0
-6.245e-017 -1.38778e-017 0
5.55112e-017 1.21431e-016 0
0 9.36751e-017 0
-2.08167e-016 9.02056e-017 0
-2.77556e-017 5.55112e-017 0
-1.31839e-016 0 0
2.08167e-017 6.93889e-017 0
3.46945e-018 4.51028e-017 0
-3.1225e-017 0 0
0 3.46945e-017 0
-1.73472e-017 -3.46945e-018 0
-6.93889e-017 2.42861e-017 0
3.46945e-018 1.9082e-016 0
1.21431e-016 9.02056e-017 0
-5.55112e-017 3.46945e-017 0
-1.14492e-016 1.11022e-016 0
-8.67362e-017 3.46945e-017 0
-2.77556e-017 2.32453e-016 0
4.51028e-017 3.08781e-016 0
5.89806e-017 1.52656e-016 0
-5.20417e-017 -2.08167e-017 0
-1.17961e-016 2.42861e-017 0
-1.73472e-017 1.07553e-016 0
3.46945e-017 0 0
9.71445e-017 5.55112e-017 0
6.59195e-017 8.32667e-017 0
5.20417e-017 2.91434e-016 0
1.73472e-017 -1.73472e-017 0
-1.04083e-016 -1.31839e-016 0
-4.51028e-017 -7.97973e-017 0
-2.60209e-016 -9.02056e-017 0
3.46945e-018 3.46945e-018 0
3.1225e-017 -1.04083e-016 0
2.46331e-016 3.1225e-017 0
5.55112e-017 -8.67362e-017 0
-6.245e-017 -3.46945e-017 0
2.42861e-017 7.63278e-017 0
-3.1225e-017 -2.01228e-016 0
9.71445e-017 -1.249e-016 0
-8.67362e-017 -6.93889e-017 0
4.51028e-017 6.93889e-018 0
3.81639e-017 2.77556e-017 0
1.56125e-016 9.02056e-017 0
1.2837e-016 -5.20417e-017 0
-6.245e-017 4.51028e-017 0
3.1225e-017 1.73472e-017 0
1.42247e-016 -2.11636e-016 0
1.17961e-016 -9.71445e-017 0
6.59195e-017 3.46945e-017 0
-9.02056e-017 -9.02056e-017 0
-1.04083e-017 4.51028e-017 0
-4.85723e-017 -7.63278e-017 0
2.08167e-017 -2.35922e-016 0
-2.77556e-017 -3.1225e-017 0
1.66533e-016 -1.42247e-016 0
1.76942e-016 -4.16334e-017 0
-1.73472e-017 1.2837e-016 0
-1.76942e-016 -1.73472e-017 0
-1.70003e-016 -8.67362e-017 0
1.56125e-016 -1.2837e-016 0
-8.32667e-017 -1.83881e-016 0
0 -6.245e-017 0
1.04083e-017 -1.2837e-016 0
-4.16334e-017 -8.32667e-017 0
3.46945e-017 -1.38778e-016 0
6.59195e-017 -1.59595e-016 0
-1.38778e-017 -2.22045e-016 0
1.14492e-016 -1.59595e-016 0
3.1225e-017 -1.11022e-016 0
3.46945e-017 -1.04083e-017 0
3.46945e-017 2.77556e-017 0
-5.89806e-017 -1.35308e-016 0
-2.70617e-016 -8.67362e-017 0
-2.60209e-016 -1.59595e-016 0
-1.31839e-016 -2.56739e-016 0
-9.02056e-017 -4.16334e-017 0
0 -3.46945e-017 0
-7.63278e-017 -5.55112e-017 0
-1.73472e-017 3.1225e-017 0
9.02056e-017 -4.51028e-017 0
-3.81639e-017 1.56125e-016 0
5.55112e-017 5.89806e-017 0
1.04083e-016 1.73472e-016 0
7.63278e-017 4.85723e-017 0
1.2837e-016 -5.20417e-017 0
-9.02056e-017 -8.32667e-017 0
-8.32667e-017 -4.85723e-017 0
-7.63278e-017 -1.70003e-016 0
-1.38778e-017 -6.93889e-018 0
-4.16334e-017 -2.08167e-016 0
-3.1225e-017 -9.71445e-017 0
1.76942e-016 -9.02056e-017 0
-4.51028e-017 -8.32667e-017 0
-1.38778e-017 1.07553e-016 0
9.02056e-017 -2.08167e-017 0
-1.04083e-017 -2.42861e-017 0
5.20417e-017 0 0
8.67362e-017 1.14492e-016 0
-5.89806e-017 -2.42861e-017 0
1.35308e-016 -4.16334e-017 0
1.04083e-017 1.9082e-016 0
-1.76942e-016 -1.04083e-017 0
1.00614e-016 -2.42861e-017 0
-6.59195e-017 -5.55112e-017 0
-4.51028e-017 -2.08167e-017 0
1.04083e-017 8.32667e-017 0
-4.51028e-017 -2.08167e-017 0
-8.32667e-017 3.1225e-017 0
-1.00614e-016 4.51028e-017 0
2.08167e-017 2.01228e-016 0
-8.32667e-017 9.36751e-017 0
3.46945e-017 6.93889e-018 0
6.245e-017 4.85723e-017 0
6.245e-017 2.28983e-016 0
-5.55112e-017 1.31839e-016 0
1.21431e-016 1.76942e-016 0
7.63278e-017 2.04697e-016 0
-9.02056e-017 2.42861e-016 0
1.07553e-016 2.28983e-016 0
8.67362e-017 3.1225e-017 0
1.21431e-016 -1.38778e-017 0
2.42861e-017 -3.81639e-017 0
-9.02056e-017 -1.94289e-016 0
1.38778e-017 -9.36751e-017 0
8.67362e-017 -3.1225e-017 0
-3.46945e-018 2.01228e-016 0
6.59195e-017 2.42861e-017 0
1.14492e-016 0 0
1.38778e-017 -1.04083e-016 0
-3.1225e-017 4.51028e-017 0
-1.70003e-016 -5.89806e-017 0
-6.245e-017 9.71445e-017 0
1.21431e-016 0 0
1.31839e-016 -4.85723e-017 0
1.11022e-016 -9.71445e-017 0
-5.89806e-017 -3.46945e-017 0
9.02056e-017 1.38778e-016 0
-2.08167e-017 3.46945e-018 0
1.07553e-016 -2.42861e-017 0
2.42861e-017 -3.46945e-018 0
8.67362e-017 5.55112e-017 0
1.04083e-016 1.04083e-017 0
1.04083e-016 -4.85723e-017 0
0 2.39392e-016 0
1.00614e-016 6.93889e-018 0
-1.73472e-017 4.85723e-017 0
4.51028e-017 5.89806e-017 0
2.42861e-017 -1.17961e-016 0
-4.85723e-017 4.85723e-017 0
1.04083e-017 -1.42247e-016 0
-3.1225e-017 9.71445e-017 0
-2.77556e-017 -5.89806e-017 0
-1.45717e-016 3.46945e-017 0
1.35308e-016 -1.14492e-016 0
8.67362e-017 -5.89806e-017 0
-4.85723e-017 -1.249e-016 0
-4.16334e-017 -4.16334e-017 0
-1.38778e-017 -2.08167e-017 0
5.20417e-017 8.32667e-017 0
3.81639e-017 5.89806e-017 0
-3.81639e-017 -3.46945e-018 0
1.04083e-016 -1.45717e-016 0
2.01228e-016 -3.81639e-017 0
1.14492e-016 5.55112e-017 0
1.38778e-016 -3.46945e-018 0
1.42247e-016 5.20417e-017 0
2.08167e-016 -1.04083e-017 0
8.32667e-017 -4.85723e-017 0
6.93889e-017 6.93889e-018 0
1.14492e-016 -4.85723e-017 0
2.11636e-016 -9.02056e-017 0
2.18575e-016 3.46945e-017 0
-1.17961e-016 7.63278e-017 0
-1.73472e-017 -4.51028e-017 0
1.52656e-016 1.35308e-016 0
-3.46945e-018 3.46945e-017 0
1.59595e-016 9.02056e-017 0
-6.93889e-017 7.63278e-017 0
5.89806e-017 1.52656e-016 0
1.42247e-016 2.18575e-016 0
-9.36751e-017 2.67147e-016 0
1.56125e-016 1.2837e-016 0
1.73472e-016 1.59595e-016 0
1.73472e-017 -2.15106e-016 0
1.17961e-016 -5.55112e-017 0
-1.04083e-016 -3.01842e-016 0
6.93889e-018 -2.11636e-016 0
1.21431e-016 -2.42861e-017 0
5.55112e-017 -3.46945e-017 0
-7.63278e-017 -6.93889e-018 0
1.73472e-017 -4.51028e-017 0
1.2837e-016 2.28983e-016 0
5.55112e-017 3.81639e-017 0
-6.93889e-017 9.02056e-017 0
1.249e-016 7.63278e-017 0
-1.73472e-017 -8.67362e-017 0
1.00614e-016 -5.20417e-017 0
1.17961e-016 -2.28983e-016 0
-1.04083e-017 -1.31839e-016 0
-1.73472e-017 -2.04697e-016 0
-2.77556e-017 -5.55112e-017 0
2.77556e-017 -1.38778e-016 0
-2.25514e-016 -8.67362e-017 0
-2.77556e-017 -2.15106e-016 0
-2.77556e-017 -5.89806e-017 0
3.46945e-018 -6.93889e-018 0
3.1225e-017 -1.00614e-016 0
9.71445e-017 2.42861e-017 0
2.42861e-017 -7.63278e-017 0
1.49186e-016 9.02056e-017 0
4.85723e-017 -1.38778e-017 0
6.59195e-017 8.67362e-017 0
1.45717e-016 4.85723e-017 0
3.46945e-018 7.97973e-017 0
-7.28584e-017 1.11022e-016 0
-5.89806e-017 6.93889e-017 0
5.55112e-017 1.9082e-016 0
4.51028e-017 7.97973e-017 0
5.55112e-017 -3.1225e-017 0
6.59195e-017 1.04083e-017 0
1.42247e-016 5.20417e-017 0
1.8735e-016 -3.46945e-018 0
8.32667e-017 -1.00614e-016 0
9.36751e-017 -6.93889e-018 0
7.97973e-017 -2.42861e-017 0
1.00614e-016 1.04083e-016 0
1.45717e-016 -7.97973e-017 0
-3.81639e-017 9.71445e-017 0
2.77556e-017 -1.00614e-016 0
5.55112e-017 4.16334e-017 0
2.77556e-017 6.245e-017 0
6.59195e-017 2.42861e-017 0
-5.55112e-017 -1.14492e-016 0
-2.77556e-017 -1.52656e-016 0
-3.46945e-018 -4.51028e-017 0
3.1225e-017 1.38778e-016 0
6.93889e-017 -7.63278e-017 0
1.07553e-016 -5.20417e-017 0
2.08167e-017 -1.73472e-017 0
-6.93889e-018 7.28584e-017 0
3.1225e-017 -8.67362e-017 0
5.89806e-017 1.38778e-017 0
3.46945e-017 3.1225e-017 0
-1.31839e-016 3.46945e-018 0
-1.52656e-016 -1.04083e-017 0
-2.42861e-017 -1.2837e-016 0
9.36751e-017 -1.73472e-017 0
7.97973e-017 3.1225e-017 0
-1.38778e-017 2.77556e-017 0
-1.07553e-016 9.71445e-017 0
-1.2837e-016 8.32667e-017 0
6.93889e-017 1.14492e-016 0
-3.46945e-018 1.04083e-017 0
6.59195e-017 1.04083e-017 0
9.71445e-017 -4.16334e-017 0
6.93889e-018 8.67362e-017 0
4.16334e-017 -3.46945e-017 0
4.51028e-017 -1.35308e-016 0
7.97973e-017 -6.59195e-017 0
7.97973e-017 -1.38778e-016 0
9.02056e-017 -3.81639e-017 0
-1.73472e-017 4.16334e-017 0
5.20417e-017 3.46945e-018 0
3.81639e-017 -1.04083e-016 0
-2.08167e-017 -2.08167e-017 0
1.17961e-016 -4.16334e-017 0
3.81639e-017 1.17961e-016 0
-3.1225e-017 5.89806e-017 0
-1.73472e-017 2.77556e-017 0
-5.89806e-017 5.55112e-017 0
2.08167e-017 6.59195e-017 0
-8.32667e-017 6.93889e-018 0
-4.51028e-017 -1.11022e-016 0
6.59195e-017 -2.42861e-017 0
2.08167e-017 8.67362e-017 0
-4.85723e-017 1.11022e-016 0
7.63278e-017 7.28584e-017 0
-9.02056e-017 6.93889e-018 0
3.46945e-017 1.31839e-016 0
8.32667e-017 1.45717e-016 0
1.14492e-016 2.18575e-016 0
3.81639e-017 -3.81639e-017 0
6.245e-017 6.59195e-017 0
-1.42247e-016 1.04083e-016 0
-3.46945e-017 -3.1225e-017 0
0 1.76942e-016 0
1.17961e-016 2.77556e-017 0
2.25514e-016 1.38778e-017 0
5.20417e-017 4.51028e-017 0
-6.245e-017 2.25514e-016 0
3.46945e-018 -9.02056e-017 0
2.42861e-017 -4.51028e-017 0
1.00614e-016 -5.20417e-017 0
-9.71445e-017 6.93889e-018 0
-6.93889e-017 4.16334e-017 0
5.20417e-017 1.76942e-016 0
5.55112e-017 -4.85723e-017 0
1.17961e-016 -9.36751e-017 0
6.93889e-018 -4.85723e-017 0
-1.04083e-017 -8.32667e-017 0
-5.20417e-017 -1.76942e-016 0
-1.31839e-016 -1.11022e-016 0
-1.35308e-016 -9.36751e-017 0
-4.85723e-017 -3.46945e-017 0
7.97973e-017 -1.04083e-017 0
-3.46945e-017 8.32667e-017 0
3.81639e-017 1.42247e-016 0
6.93889e-017 -6.93889e-018 0
2.08167e-017 5.55112e-017 0
2.01228e-016 -1.249e-016 0
-3.46945e-018 -6.245e-017 0
6.245e-017 -1.11022e-016 0
4.16334e-017 -2.08167e-017 0
-4.51028e-017 -7.28584e-017 0
6.93889e-018 -6.59195e-017 0
-5.20417e-017 6.93889e-018 0
6.93889e-017 -7.63278e-017 0
-4.16334e-017 -1.38778e-017 0
5.20417e-017 -4.51028e-017 0
5.20417e-017 -6.59195e-017 0
6.59195e-017 1.04083e-017 0
2.42861e-017 1.31839e-016 0
1.2837e-016 6.245e-017 0
-6.93889e-018 -9.71445e-017 0
-7.28584e-017 -8.67362e-017 0
6.93889e-018 -8.67362e-017 0
1.04083e-017 -1.38778e-017 0
3.81639e-017 -6.245e-017 0
-1.04083e-017 -1.249e-016 0
-6.245e-017 -1.66533e-016 0
1.76942e-016 -1.38778e-016 0
-4.16334e-017 -2.15106e-016 0
-5.89806e-017 -2.63678e-016 0
-5.89806e-017 -1.14492e-016 0
3.46945e-017 -7.63278e-017 0
-2.22045e-016 -1.52656e-016 0
1.2837e-016 -2.77556e-017 0
1.63064e-016 1.35308e-016 0
0 -1.42247e-016 0
1.07553e-016 -8.32667e-017 0
-4.16334e-017 4.16334e-017 0
-1.38778e-017 -4.85723e-017 0
2.42861e-017 -4.85723e-017 0
-5.55112e-017 7.97973e-017 0
1.2837e-016 9.71445e-017 0
-7.28584e-017 1.11022e-016 0
0 -2.08167e-017 0
-3.46945e-018 3.46945e-017 0
3.1225e-017 9.71445e-017 0
-8.67362e-017 -1.04083e-017 0
-6.93889e-018 -4.51028e-017 0
-2.42861e-017 9.02056e-017 0