# vtk DataFile Version 4.0
SiwiRVisFile
ASCII
DATASET STRUCTURED_POINTS
DIMENSIONS 50 50 1
ORIGIN 0 0 0
SPACING 1 1 1
POINT_DATA 2500

SCALARS flags double 1
LOOKUP_TABLE default
1
1
1
1
1
1
1
1
1
1
1
1
1
1
1
1
1
1
1
1
1
1
1
1
1
1
1
1
1
1
1
1
1
1
1
1
1
1
1
1
1
1
1
1
1
1
1
1
1
1
1
1
1
1
1
1
1
1
1
1
1
1
1
1
1
1
1
1
1
1
1
1
1
1
1
1
1
1
1
1
1
1
1
1
1
1
1
1
1
1
1
1
1
1
1
1
1
1
1
1
1
1
1
1
1
1
1
1
1
1
1
1
1
1
1
1
1
1
1
1
1
1
1
1
1
1
1
1
1
1
1
1
1
1
1
1
1
1
1
1
1
1
1
1
1
1
1
1
1
1
1
1
1
1
1
1
1
1
1
1
1
1
1
1
1
1
1
1
1
1
1
1
1
1
1
1
1
1
1
1
1
1
1
1
1
1
1
1
1
1
1
1
1
1
1
1
1
1
1
1
1
1
1
1
1
1
1
1
1
1
1
1
1
1
1
1
1
1
1
1
1
1
1
1
1
1
1
1
1
1
1
1
1
1
1
1
1
1
1
1
1
1
1
1
1
1
1
1
1
1
1
1
1
1
1
1
1
1
1
1
1
1
1
1
1
1
1
1
1
1
1
1
1
1
1
1
1
1
1
1
1
1
1
1
1
1
1
1
1
1
1
1
1
1
1
1
1
1
1
1
1
1
1
1
1
1
1
1
1
1
1
1
1
1
1
1
1
1
1
1
1
1
1
1
1
1
1
1
1
1
1
1
1
1
1
1
1
1
1
1
1
1
1
1
1
1
1
1
1
1
1
1
1
1
1
1
1
1
1
1
1
1
1
1
1
1
1
1
1
1
1
1
1
1
1
1
1
1
1
1
1
1
1
1
1
1
1
1
1
1
1
1
1
1
1
1
1
1
1
1
1
1
1
1
1
1
1
1
1
1
1
1
1
1
1
1
1
1
1
1
1
1
1
1
1
1
1
1
1
1
1
1
1
1
1
1
1
1
1
1
1
1
1
1
1
1
1
1
1
1
1
1
1
1
1
1
1
1
1
1
1
1
1
1
1
1
1
1
1
1
1
1
1
1
1
1
1
1
1
1
1
1
1
1
1
1
1
1
1
1
1
1
1
1
1
1
1
1
1
1
1
1
1
1
1
1
1
1
1
1
1
1
1
1
1
1
1
1
1
1
1
1
1
1
1
1
1
1
1
1
1
1
1
1
1
1
1
1
1
1
1
1
1
1
1
1
1
1
1
1
1
1
1
1
1
1
1
1
1
1
1
1
1
1
1
1
1
1
1
1
1
1
1
1
1
1
1
1
1
1
1
1
1
1
1
1
1
1
1
1
1
1
1
1
1
1
1
1
1
1
1
1
1
1
1
1
1
1
1
1
1
1
1
1
1
1
1
1
1
1
1
1
1
1
1
1
1
1
1
1
1
1
1
1
1
1
1
1
1
1
1
1
1
1
1
1
1
1
1
1
1
1
1
1
1
1
1
1
1
1
1
1
1
1
1
1
1
1
1
1
1
1
1
1
1
1
1
1
1
1
1
1
1
1
1
1
1
1
1
1
1
1
1
1
1
1
1
1
1
1
1
1
1
1
1
1
1
1
1
1
1
1
1
1
1
1
1
1
1
1
1
1
1
1
1
1
1
1
1
1
1
1
1
1
1
1
1
1
1
1
1
1
1
1
1
1
1
1
1
1
1
1
1
1
1
1
1
1
1
1
1
1
1
1
1
1
1
1
1
1
1
1
1
1
1
1
1
1
1
1
1
1
1
1
1
1
1
1
1
1
1
1
1
1
1
1
1
1
1
1
1
1
1
1
1
1
1
1
1
1
1
1
1
1
1
1
1
1
1
1
1
1
1
1
1
1
1
1
1
1
1
1
1
1
1
1
1
1
1
1
1
1
1
1
1
1
1
1
1
1
1
1
1
1
1
1
1
1
1
1
1
1
1
1
1
1
1
1
1
1
1
1
1
1
1
1
1
1
1
1
1
1
1
1
1
1
1
1
1
1
1
1
1
1
1
1
1
1
1
1
1
1
1
1
1
1
1
1
1
1
1
1
1
1
1
1
1
1
1
1
1
1
1
1
1
1
1
1
1
1
1
1
1
1
1
1
1
1
1
1
1
1
1
1
1
1
1
1
1
1
1
1
1
1
1
1
1
1
1
1
1
1
1
1
1
1
1
1
1
1
1
1
1
1
1
1
1
1
1
1
1
1
1
1
1
1
1
1
1
1
1
1
1
1
1
1
1
1
1
1
1
1
1
1
1
1
1
1
1
1
1
1
1
1
1
1
1
1
1
1
1
1
1
1
1
1
1
1
1
1
1
1
1
1
1
1
1
1
1
1
1
1
1
1
1
1
1
1
1
1
1
1
1
1
1
1
1
1
1
1
1
1
1
1
1
1
1
1
1
1
1
1
1
1
1
1
1
1
1
1
1
1
1
1
1
1
1
1
1
1
1
1
1
1
1
1
1
1
1
1
1
1
1
1
1
1
1
1
1
1
1
1
1
1
1
1
1
1
1
1
1
1
1
1
1
1
1
1
1
1
1
1
1
1
1
1
1
1
1
1
1
1
1
1
1
1
1
1
1
1
1
1
1
1
1
1
1
1
1
1
1
1
1
1
1
1
1
1
1
1
1
1
1
1
1
1
1
1
1
1
1
1
1
1
1
1
1
1
1
1
1
1
1
1
1
1
1
1
1
1
1
1
1
1
1
1
1
1
1
1
1
1
1
1
1
1
1
1
1
1
1
1
1
1
1
1
1
1
1
1
1
1
1
1
1
1
1
1
1
1
1
1
1
1
1
1
1
1
1
1
1
1
1
1
1
1
1
1
1
1
1
1
1
1
1
1
1
1
1
1
1
1
1
1
1
1
1
1
1
1
1
1
1
1
1
1
1
1
1
1
1
1
1
1
1
1
1
1
1
1
1
1
1
1
1
1
1
1
1
1
1
1
1
1
1
1
1
1
1
1
1
1
1
1
1
1
1
1
1
1
1
1
1
1
1
1
1
1
1
1
1
1
1
1
1
1
1
1
1
1
1
1
1
1
1
1
1
1
1
1
1
1
1
1
1
1
1
1
1
1
1
1
1
1
1
1
1
1
1
1
1
1
1
1
1
1
1
1
1
1
1
1
1
1
1
1
1
1
1
1
1
1
1
1
1
1
1
1
1
1
1
1
1
1
1
1
1
1
1
1
1
1
1
1
1
1
1
1
1
1
1
1
1
1
1
1
1
1
1
1
1
1
1
1
1
1
1
1
1
1
1
1
1
1
1
1
1
1
1
1
1
1
1
1
1
1
1
1
1
1
1
1
1
1
1
1
1
1
1
1
1
1
1
1
1
1
1
1
1
1
1
1
1
1
1
1
1
1
1
1
1
1
1
1
1
1
1
1
1
1
1
1
1
1
1
1
1
1
1
1
1
1
1
1
1
1
1
1
1
1
1
1
1
1
1
1
1
1
1
1
1
1
1
1
1
1
1
1
1
1
1
1
1
1
1
1
1
1
1
1
1
1
1
1
1
1
1
1
1
1
1
1
1
1
1
1
1
1
1
1
1
1
1
1
1
1
1
1
1
1
1
1
1
1
1
1
1
1
1
1
1
1
1
1
1
1
1
1
1
1
1
1
1
1
1
1
1
1
1
1
1
1
1
1
1
1
1
1
1
1
1
1
1
1
1
1
1
1
1
1
1
1
1
1
1
1
1
1
1
1
1
1
1
1
1
1
1
1
1
1
1
1
1
1
1
1
1
1
1
1
1
1
1
1
1
1
1
1
1
1
1
1
1
1
1
1
1
1
1
1
1
1
1
1
1
1
1
1
1
1
1
1
1
1
1
1
1
1
1
1
1
1
1
1
1
1
1
1
1
1
1
1
1
1
1
1
1
1
1
1
1
1
1
1
1
1
1
1
1
1
1
1
1
1
1
1
1
1
1
1
1
1
1
1
1
1
1
1
1
1
1
1
1
1
1
1
1
1
1
1
1
1
1
1
1
1
1
1
1
1
1
1
1
1
1
1
1
1
1
1
1
1
1
1
1
1
1
1
1
1
1
1
1
1
1
1
1
1
1
1
1
1
1
1
1
1
1
1
1
1
1
1
1
1
1
1
1
1
1
1
1
1
1
1
1
1
1
1
1
1
1
1
1
1
1
1
1
1
1
1
1
1
1
1
1
1
1
1
1
1
1
1
1
1
1
1
1
1
1
1
1
1
1
1
1
1
1
1
1
1
1
1
1
1
1
1
1
1
1
1
1
1
1
1
1
1
1
1
1
1
1
1
1
1
1
1
1
1
1
1
1
1
1
1
1
1
1
1
1
1
1
1
1
1
1
1
1
1
1
1
1
1
1
1
1
1
1
1
1
1
1
1
1
1
1
1
1
1
1
1
1
1
1
1
1
1
1
1
1
1
1
1
1
1
1
1
1
1
1
1
1
1
1
1
1
1
1
1
1
1
1
1
1
1
1
1
1
1
1
1
1
1
1
1
1
1
1
1
1
1
1
1
1
1
1
1
1
1
1
1
1
1
1
1
1
1
1
1
1
1
1
1
1
1
1
1
1
1
1
1
1
1
1
1
1
1
1
1
1
1
1
1
1
1
1
1
1
1
1
1
1
1
1
1
1
1
1
1
1
1
1
1
1
1
1
1
1
1
1
1
1
1
1
1
1
1
1
1
1
1
1
1
1
1
1
1
1
1
1
1
1
1
1
1
1
1
1
1
1
1
1
1
1
1
1
1
1
1
1
1
1
1
1
1
1
1
1
1
1
1
1
1
1
1
1
1
1
1
1
1
1
1
1
1
1
1
1
1
1
1
1
1
1
1
1
1
1
1
1
1
1
1
1
1
1
1
1
1
1
1
1
1
1
1
1
1
1
1
1
1
1
1
1
1
1
1
1
1
1
1
1
1
1
1
1
1
1
1
1
1
1
1
1
1
1
1
1
1
1
1
1
1
1
1
1
1
1
1
1
1
1
1
1
1
1
1
1
1
1
1
1
1
1
1
1
1
1
1
1
1
1
1
1
1
1
1
1
1
1
1
1
1
1
1
1
1
1
1
1
1
1
1
1
1
1
1
1
1
1
1
1
1
1
1
1
1
1
1
1
1
1
1
1
1
1
1
1
1
1
1
1
1
1
1
1
1
1
1
1
1
1
1
1
1
1
1
1
1
1
1
1
1
1
1
1
1
1
1
1
1
1
1
1
1
1
1
1
1
1
1
1
1
1
1
1
1
1
1
1
1
1
1
1
1
1
1
1
1
1
1
1
1
1
1
1
1
1
1
1
1
1
1
1
1
1
1
1
1
1
1
1
1
1
1
1
1
1
1
1
1
1
1
1
1
1
1
1
1
1
1
1
1
1
1
1
1
1
1
1
1
1
1
1
1
1
1
1
1
1
1
1
1
1
1
1
1
1
1
1
1
1
1
1
1
1
1
1
1
1
1
1
1
1
1
1
1
1
1
1
1
1
1
1
1
1
1
1
1
1
1
1
1
1
1
1
1
1
1
1
1
1
1
1
1
1
1
1
1
1
1
1
1
1
1
1
1
1
1
1
1
1
1
1
1
1
1
1
1
1
1
1
1
1
1
1
1
1
1
1
1
1
1
1
1
1
1
1
1
1
1

SCALARS density double 1
LOOKUP_TABLE default
1
1
1
1
1
1
1
1
1
1
1
1
1
1
1
1
1
1
1
1
1
1
1
1
1
1
1
1
1
1
1
1
1
1
1
1
1
1
1
1
1
1
1
1
1
1
1
1
1
1
1
1
1
1
1
1
1
1
1
1
1
1
1
1
1
1
1
1
1
1
1
1
1
1
1
1
1
1
1
1
1
1
1
1
1
1
1
1
1
1
1
1
1
1
1
1
1
1
1
1
1
1
1
1
1
1
1
1
1
1
1
1
1
1
1
1
1
1
1
1
1
1
1
1
1
1
1
1
1
1
1
1
1
1
1
1
1
1
1
1
1
1
1
1
1
1
1
1
1
1
1
1
1
1
1
1
1
1
1
1
1
1
1
1
1
1
1
1
1
1
1
1
1
1
1
1
1
1
1
1
1
1
1
1
1
1
1
1
1
1
1
1
1
1
1
1
1
1
1
1
1
1
1
1
1
1
1
1
1
1
1
1
1
1
1
1
1
1
1
1
1
1
1
1
1
1
1
1
1
1
1
1
1
1
1
1
1
1
1
1
1
1
1
1
1
1
1
1
1
1
1
1
1
1
1
1
1
1
1
1
1
1
1
1
1
1
1
1
1
1
1
1
1
1
1
1
1
1
1
1
1
1
1
1
1
1
1
1
1
1
1
1
1
1
1
1
1
1
1
1
1
1
1
1
1
1
1
1
1
1
1
1
1
1
1
1
1
1
1
1
1
1
1
1
1
1
1
1
1
1
1
1
1
1
1
1
1
1
1
1
1
1
1
1
1
1
1
1
1
1
1
1
1
1
1
1
1
1
1
1
1
1
1
1
1
1
1
1
1
1
1
1
1
1
1
1
1
1
1
1
1
1
1
1
1
1
1
1
1
1
1
1
1
1
1
1
1
1
1
1
1
1
1
1
1
1
1
1
1
1
1
1
1
1
1
1
1
1
1
1
1
1
1
1
1
1
1
1
1
1
1
1
1
1
1
1
1
1
1
1
1
1
1
1
1
1
1
1
1
1
1
1
1
1
1
1
1
1
1
1
1
1
1
1
1
1
1
1
1
1
1
1
1
1
1
1
1
1
1
1
1
1
1
1
1
1
1
1
1
1
1
1
1
1
1
1
1
1
1
1
1
1
1
1
1
1
1
1
1
1
1
1
1
1
1
1
1
1
1
1
1
1
1
1
1
1
1
1
1
1
1
1
1
1
1
1
1
1
1
1
1
1
1
1
1
1
1
1
1
1
1
1
1
1
1
1
1
1
1
1
1
1
1
1
1
1
1
1
1
1
1
1
1
1
1
1
1
1
1
1
1
1
1
1
1
1
1
1
1
1
1
1
1
1
1
1
1
1
1
1
0.999999
1
1
1
1
1
1
1
1
1
1
1
1
1
1
1
1
1
1
1
1
1
1
1
1
1
1
1
1
1
0.999999
0.999999
1
1
1
1
1
1
1
1
1
1
1
1
1
1
1
1
1
1
1
1
1
1
1
1
1
1
1
1
1
1
1
1
1
1
1
1
1
1
1
1
1
1
1
1
1
0.999999
0.999999
0.999999
0.999999
0.999999
1
1
1
1
1
1
1
1
1
1
1
1
1
1
1
1
0.999999
1
1
0.999996
1
1
1
1
1
1
1
1
1
1
1
1
1
1
1
1
0.999999
0.999999
1
0.999998
0.999999
1
1
1
1
1
1
1
1
1
1
1
1
1
1
1
1
1
1
1
0.999999
0.999999
0.999999
0.999999
0.999999
1
0.999998
1
1
1
1
1
0.999999
0.999999
1
1
1
1
1
1
1
1
1
1
1
1
0.999996
0.999995
1
0.999997
0.999991
1
1
0.999996
1
1.00001
1
1
1.00001
1
0.999999
0.999999
0.999999
0.999998
0.999998
0.999998
0.999998
0.999998
0.999998
0.999998
0.999999
0.999999
0.999999
0.999999
0.999999
0.999999
1.00001
0.999998
0.999997
1
0.999997
1
0.999999
0.999999
0.999999
0.999999
0.999999
0.999999
0.999999
0.999999
1
0.999999
1
1
0.999995
0.999998
1.00001
0.999996
0.999985
1.00001
1.00001
0.99999
0.999989
1.00001
1.00001
0.999986
0.999991
1.00001
1
0.999987
1
1
0.999995
0.999997
1
1
1
1
1
1
1
1
1
1
1
1
1
0.999999
0.999999
1
0.999999
1
1
1
1
1
1
1
0.999999
0.999996
1
0.999997
0.999985
1.00001
1.00001
0.99997
0.999997
1.00004
0.999988
0.999983
1.00004
1
0.999973
1.00002
0.999996
0.999959
1.00002
1.00001
0.999961
1
1.00003
0.99999
0.999994
1.00002
1.00001
1
1.00001
1
1
1
1
1
0.999999
0.999999
0.999998
1
0.999986
1
0.999999
0.999991
1
0.999999
1
0.999999
0.999999
1
0.999999
0.999999
1.00001
0.99999
0.999992
1.00003
0.99999
0.999944
1.00004
1.00005
0.999924
0.999977
1.00009
0.999989
0.999921
1.00005
1.00007
0.999936
0.999952
1.00008
1.00001
0.99991
1.00002
1.00008
0.999954
0.999964
1.00006
1.00001
0.999967
1.00001
1.00001
0.999988
0.999997
0.999997
0.999995
0.999998
0.999998
0.999998
1
1
1
1.00001
0.999996
1
0.999999
0.999998
0.999996
1
0.999994
1
1
0.999979
1.00002
1.00004
0.999945
0.999981
1.00012
0.999987
0.999886
1.00008
1.00009
0.999883
0.999989
1.00009
0.999933
0.999971
1.00005
0.99995
1.00003
1.00007
0.999913
1.00001
1.00011
0.999915
0.999916
1.00011
1.00001
0.999884
1.00002
1.00005
0.999963
0.999984
1.00002
0.999998
1
1.00001
1
1
1.00001
0.999994
1.00001
0.999998
0.999981
0.999994
0.999996
1.00001
1
1.00001
0.999999
0.999988
1.00005
0.999993
0.999914
1.00007
1.0001
0.99985
0.999951
1.0002
0.999969
0.999824
1.00013
1.00012
0.999803
0.99996
1.00021
0.999911
0.999813
1.00018
1.0001
0.99979
1.00003
1.0002
0.999885
0.999866
1.00017
1.00004
0.999815
1.00005
1.00015
0.999905
0.999936
1.00009
1.00001
0.999958
1.00001
1
0.999985
1
0.999992
0.999997
1.00001
1.00001
0.99996
0.999967
0.999986
0.999999
0.999984
1.00001
1.00004
0.999931
0.999974
1.00016
0.999956
0.999795
1.00014
1.00015
0.99977
0.999936
1.00021
0.999934
0.999826
1.00011
1.00011
0.999881
0.99997
1.00008
1.00002
0.999981
0.999928
1.00002
1.00012
0.999905
0.999884
1.00017
1.00007
0.999803
1.00006
1.00022
0.999862
0.999867
1.00019
1.00003
0.999844
1.00002
1.00006
0.999953
0.99999
1.00002
0.999997
1.00002
1.00002
1.00005
0.999913
0.999935
0.999932
0.999984
0.999975
0.999891
1.00007
1.00009
0.999776
0.999949
1.00028
0.99992
0.99976
1.00018
1.00011
0.999772
0.999993
1.00021
0.999918
0.999818
1.00017
1.00013
0.999735
1.00007
1.00028
0.999744
0.999906
1.00026
0.999894
0.999824
1.00016
1.00009
0.999796
0.99999
1.00021
0.999893
0.999823
1.00022
1.00007
0.999743
1.00005
1.00021
0.999916
0.999936
1.00011
1.00002
1.00002
1.00007
1.00006
1.00009
0.99986
0.999935
0.999849
0.999891
1.00009
0.999895
0.999776
1.00021
1.00016
0.999704
0.999983
1.00027
0.999887
0.999861
1.00019
1.0001
0.999843
0.999996
1.00012
1.00003
0.999852
0.999956
1.00023
0.999936
0.999773
1.00021
1.00008
0.999777
1.00002
1.00014
0.999981
0.999892
0.999994
1.00015
0.999918
0.99982
1.00013
1.00011
0.999757
1.00002
1.00027
0.999849
0.999809
1.00021
1.00009
0.999911
1.0001
1.00014
1.00007
1.00012
0.999815
0.999882
0.999881
0.999634
0.999892
1.00023
0.999804
0.999731
1.00023
1.0001
0.99976
1.00005
1.00016
0.999892
0.999899
1.00009
1.00005
0.999895
1.00003
1.00006
0.99988
0.999949
1.00014
0.999969
0.999832
1.00014
1.00006
0.999863
1.00003
1.00013
0.999953
0.999963
1.0001
0.999965
0.999908
1.00009
1.0001
0.999841
0.999939
1.0002
0.999884
0.999781
1.00023
1.00015
0.999774
1.00011
1.00033
1.00011
1.00011
1.00017
0.999795
0.999452
0.999838
0.999739
0.99931
0.999753
1.0001
0.999732
0.999774
1.00013
0.999992
0.999827
0.999998
1.00005
0.999962
0.999902
1.00005
1.00005
0.999891
0.999986
1.00015
1.0001
0.999723
1.00002
1.00033
0.99971
0.999932
1.00028
0.999926
0.999849
0.999995
1.0001
0.999952
0.999932
1.00008
1.00003
0.999935
0.999996
1.00016
0.99999
0.99987
1.0002
1.00022
0.999898
1.00024
1.00062
1.00021
1.00016
1.00049
1.00018
0.99981
0.999009
0.999114
0.99966
0.999443
0.999153
0.999578
0.999856
0.999689
0.999815
1.00002
1.00006
0.999923
1.00002
1.00007
0.999956
0.999895
1.00015
1.00002
0.999854
1.00021
0.999905
0.999973
1.00008
0.999929
1.00007
0.999909
1.00001
1.00012
0.999786
1.00012
1
0.999838
1.00009
1.00005
0.999917
0.999983
1.00008
0.999922
0.999951
1.00018
1.00027
1.0001
1.00038
1.00074
1.00045
1.00028
1.00078
1.00079
1.00013
0.998776
0.999148
0.998982
0.998624
0.999131
0.999098
0.998956
0.999316
0.999646
0.99966
0.999739
1.00002
1.00003
0.999795
1.0001
1.00018
0.999924
0.999747
1.00015
1.0001
0.999694
1.00005
1.00021
0.999885
0.999815
1.00013
1.00018
0.999807
0.999904
1.0003
0.999949
0.99982
1.00023
1.0001
0.999813
0.999887
1.00019
0.999949
0.999946
1.00023
1.00028
1.00023
1.00056
1.0009
1.0007
1.00069
1.00113
1.0008
1.00056
1.00102
0.997952
0.998529
0.998734
0.997831
0.998179
0.998461
0.998479
0.998432
0.998946
0.999302
0.999301
0.999504
1.00011
0.999947
0.999674
1.00006
1.00008
1.00004
0.999845
1.00011
0.999944
1.00001
1.00004
0.999942
1.00013
0.999879
1.00005
0.999977
0.999964
1.00006
0.999855
1.00014
0.999989
0.999879
0.999917
1.0003
1.00004
0.999832
1.00041
1.00059
1.00054
1.00085
1.00133
1.0012
1.00116
1.00146
1.00165
1.00093
1.00112
1.00157
0.998555
0.99711
0.997389
0.998087
0.99773
0.997531
0.997909
0.997933
0.997875
0.998788
0.999124
0.99917
0.999373
1.00009
0.999912
0.999794
1.00018
1.00009
0.999986
0.999709
1.00037
1.00005
0.999635
1.0002
1.00009
0.999956
0.999722
1.00031
1.00003
0.999604
1.00025
1.00006
0.999866
0.999823
1.00019
1.00005
0.999836
1.00051
1.00071
1.00067
1.00093
1.00172
1.00163
1.00156
1.0019
1.00175
1.00124
1.00193
1.00231
1.00094
0.997688
0.997079
0.997695
0.998144
0.997393
0.997253
0.997739
0.997773
0.997523
0.997475
0.998437
0.998778
0.999033
0.999382
1.00009
0.999751
0.999733
1.00002
1.00008
1.00016
0.999662
0.999975
1.00012
0.999953
0.999918
1.00006
1.00008
0.999893
0.99997
1.00034
0.999906
0.99987
0.999971
1.00022
1.0002
0.999869
1.00048
1.0008
1.00089
1.00116
1.002
1.0019
1.00161
1.00165
1.00197
1.00192
1.00126
1.00165
1.00211
1.00179
0.996453
0.997847
0.998252
0.997004
0.997761
0.998253
0.997319
0.997082
0.99758
0.997118
0.997229
0.998073
0.998462
0.998864
0.999022
1.00018
0.999755
0.999786
1.00011
1.00012
0.999899
0.999857
1.00034
0.999906
0.999876
1.00008
1.00017
0.999683
1.00006
1.00013
0.99983
0.999858
1.00016
1.00022
0.999764
1.00076
1.00093
1.00116
1.00149
1.00218
1.00226
1.00179
1.00221
1.00215
1.00124
1.00172
1.00245
1.00151
1.00144
1.00282
0.997634
0.997974
0.997644
0.997219
0.998389
0.998506
0.99759
0.99791
0.997637
0.997729
0.997135
0.99712
0.998009
0.998547
0.999061
0.999076
1.00024
0.999721
0.999837
0.999958
1.00022
1.00012
0.999685
1.00006
1.00021
0.99984
0.999832
1.00028
0.999983
0.99972
1.00001
1.00015
1.00023
0.999707
1.00068
1.00075
1.00107
1.00147
1.00225
1.00226
1.00173
1.00193
1.00167
1.00201
1.00132
1.00148
1.00222
1.00228
1.00179
1.00176
0.997924
0.99653
0.997366
0.99848
0.997818
0.996862
0.998391
0.998718
0.997568
0.997063
0.997922
0.997069
0.997038
0.997754
0.99841
0.998764
0.999122
1.0002
0.999659
0.999753
1.00016
1.00001
0.999831
0.999924
1.00007
0.999977
1.00001
1.00014
1.00001
0.99984
1.0002
1.00029
0.999772
1.00062
1.00103
1.00115
1.0017
1.00237
1.00242
1.00166
1.00242
1.00218
1.00114
1.00139
1.00276
1.00228
1.0012
1.00235
1.00324
1.00201
0.997124
0.997017
0.997047
0.996746
0.996531
0.997841
0.997472
0.997646
0.997848
0.997996
0.997214
0.997774
0.996564
0.997095
0.997743
0.998709
0.998903
0.999243
1.00024
1.00004
0.999686
0.999923
1.0004
1.00002
0.999727
1.00018
1.00013
0.999622
0.999945
1.00029
0.999951
0.999681
1.00048
1.00089
1.00092
1.00172
1.00239
1.00288
1.00188
1.00244
1.00188
1.00178
1.00222
1.00242
1.00174
1.00317
1.00302
1.00262
1.00249
1.00295
0.997091
0.998905
0.997642
0.996662
0.997351
0.99912
0.996561
0.997166
0.998912
0.998561
0.997484
0.997139
0.998522
0.996873
0.997245
0.997812
0.998765
0.999165
0.999352
1.00011
0.999782
0.999971
1.00005
1.00003
0.999974
0.999983
0.99994
0.999961
1.00002
1.00019
0.999803
1.00044
1.0007
1.00088
1.00164
1.00227
1.00268
1.00125
1.00245
1.00238
1.00135
1.00107
1.00256
1.00331
1.00089
1.00236
1.00303
1.00248
1.00093
1.00273
0.99863
0.997074
0.997124
0.998216
0.997568
0.996456
0.997171
0.997891
0.997089
0.997119
0.998239
0.997906
0.996627
0.997351
0.996737
0.997045
0.998066
0.998837
0.999165
0.999418
1.00033
1.0001
0.999468
0.999978
1.0002
0.999912
0.999853
1.00046
0.999991
0.999587
1.0004
1.00068
1.00084
1.00147
1.00249
1.00285
1.00229
1.00312
1.00219
1.00155
1.00268
1.00304
1.00201
1.00262
1.00376
1.00279
1.00172
1.00311
1.00314
1.00151
0.998029
0.996197
0.996951
0.998685
0.997003
0.996272
0.997031
0.998093
0.996302
0.99731
0.998457
0.998061
0.997033
0.997509
0.997965
0.996948
0.997395
0.99849
0.999399
0.999581
0.999706
0.999955
1.00018
1.00001
0.999872
1.00008
1.00007
0.99982
0.999915
1.00015
1.00031
1.00035
1.00106
1.00212
1.00268
1.00192
1.00228
1.00283
1.00182
1.00149
1.00254
1.00355
1.00201
1.00278
1.00343
1.00308
1.0016
1.00315
1.00386
1.00246
0.995263
0.998663
0.997369
0.996411
0.996523
0.998938
0.997014
0.99655
0.998344
0.997667
0.997173
0.997543
0.998537
0.997416
0.99627
0.997569
0.996959
0.99754
0.998677
0.999365
0.99942
0.999613
1.00048
1.00001
0.999778
1.00004
1.00012
0.999511
1.00018
1.0005
1.00043
1.00094
1.00207
1.00279
1.00222
1.0034
1.00274
1.00142
1.00231
1.00305
1.00239
1.00137
1.00331
1.00335
1.00087
1.0032
1.0037
1.00263
1.00128
1.00495
0.997321
0.997504
0.996716
0.996911
0.997129
0.998141
0.996622
0.99727
0.997309
0.997725
0.996552
0.99766
0.998095
0.997259
0.996878
0.996893
0.997508
0.997302
0.998032
0.999277
0.999957
0.999916
0.999622
0.999821
1.00026
0.999841
0.999985
1.00028
1.00011
0.999906
1.0004
1.0016
1.00242
1.00232
1.00297
1.00313
1.00273
1.00192
1.00225
1.00345
1.00247
1.00282
1.00287
1.00347
1.00221
1.00285
1.00297
1.00345
1.00274
1.00256
0.997878
0.995296
0.99575
0.999905
0.996386
0.995578
0.997553
0.998854
0.995691
0.996052
0.998743
0.997383
0.997009
0.998115
0.998515
0.996969
0.996467
0.997695
0.998019
0.998521
0.99953
0.999987
0.999599
0.999979
1.00021
0.999885
0.999874
1.00033
0.999939
1.00015
1.00116
1.00181
1.00214
1.00332
1.00321
1.00159
1.0017
1.00311
1.00285
1.00106
1.00353
1.00462
1.00144
1.00227
1.00451
1.00373
1.00012
1.00421
1.00465
1.00212
0.995721
0.996355
0.996183
0.996954
0.99572
0.996807
0.996925
0.996916
0.996747
0.997739
0.99743
0.997407
0.997137
0.99783
0.997448
0.996666
0.996753
0.996689
0.997564
0.998381
0.998836
0.999705
1.00032
1.00024
0.999604
1.00014
0.99993
0.999638
0.999968
1.00091
1.00149
1.00224
1.0032
1.00338
1.0034
1.00271
1.00229
1.00284
1.00249
1.00273
1.00258
1.00301
1.00317
1.00307
1.00309
1.00434
1.00338
1.00364
1.00344
1.00464
0.995086
1.00064
0.997897
0.995064
0.996707
1.00024
0.996723
0.996076
0.999057
0.998467
0.996502
0.996831
0.999206
0.997334
0.996795
0.998413
0.997992
0.996696
0.997165
0.998766
0.999346
0.99951
0.999894
0.999898
0.999741
1.0002
1.00009
0.999911
1.00033
1.00064
1.00104
1.00266
1.00358
1.00244
1.00168
1.00319
1.0031
1.00078
1.00277
1.00395
1.00205
1.00083
1.00366
1.00358
0.999689
1.00333
1.0052
1.00251
0.99974
1.0047
0.997228
0.996646
0.993542
0.998027
0.995312
0.995815
0.997111
0.996618
0.995776
0.996089
0.997357
0.996967
0.996265
0.997156
0.997369
0.996922
0.99652
0.996618
0.996937
0.997416
0.998824
0.999497
0.999435
0.999836
1.00045
0.999728
0.999809
1.00038
1.00047
1.00095
1.00242
1.00325
1.00363
1.00376
1.00323
1.00257
1.00268
1.00388
1.00346
1.0027
1.00382
1.00411
1.00353
1.003
1.0045
1.00497
1.00203
1.00673
1.00422
1.00252
0.999761
0.992682
0.996203
1.00056
0.996922
0.995246
0.998197
0.999299
0.996443
0.997233
0.999623
0.997941
0.997287
0.998947
0.999153
0.997434
0.997417
0.998262
0.997946
0.997719
0.998862
0.999911
1.00018
1.00006
1.00019
0.99966
0.999867
0.999899
0.999897
1.00088
1.00252
1.00271
1.00212
1.00274
1.00298
1.00113
1.00083
1.00279
1.00254
1.00053
1.00273
1.00404
1.00091
1.00171
1.00485
1.00369
1.00013
1.00403
1.00759
1.00109
0.991148
0.99947
0.995773
0.994206
0.995153
0.998906
0.995006
0.994655
0.997878
0.997361
0.995582
0.996175
0.997432
0.996395
0.995319
0.996885
0.997166
0.995669
0.995786
0.997433
0.998254
0.998744
0.999694
0.999725
0.999511
1.00021
1.00038
1.00011
1.00106
1.00201
1.00289
1.00462
1.00514
1.00352
1.00302
1.00461
1.00399
1.00251
1.00348
1.00453
1.0031
1.00196
1.00519
1.00535
1.00127
1.00497
1.0067
1.00442
1.00034
1.01015
0.99649
0.999551
0.997
0.993381
0.997224
0.999341
0.995462
0.995619
0.998394
0.99853
0.997203
0.998459
0.999622
0.998094
0.997542
0.998709
0.998537
0.997784
0.997952
0.998924
0.999308
0.999537
0.99996
1.00027
1.00002
1.0001
0.999611
0.999691
1.00058
1.00112
1.00137
1.00238
1.0029
1.00205
1.00131
1.00235
1.00233
1.00054
1.00142
1.00338
1.00198
1.00155
1.00435
1.00527
1.00141
1.003
1.00689
1.00337
1.00184
1.00385
0.997874
0.990189
0.992445
1.00195
0.994738
0.99182
0.997064
0.998825
0.995884
0.995107
0.998117
0.997041
0.995725
0.996717
0.997111
0.995789
0.995416
0.996914
0.997025
0.99651
0.997738
0.999275
0.999285
0.999746
1.00011
0.999836
1.00002
1.00092
1.00093
1.00231
1.00452
1.00459
1.00403
1.00491
1.00459
1.0029
1.00307
1.00447
1.00335
1.00139
1.00458
1.00486
1.00179
1.00237
1.00819
1.00599
0.998529
1.00846
1.01051
1.00091
0.993596
0.993499
0.996372
0.998128
0.99439
0.995877
0.997204
0.997396
0.9966
0.997434
0.998361
0.998027
0.997936
0.998443
0.997874
0.997441
0.997857
0.997947
0.997667
0.998369
0.999453
1.00008
0.999828
0.999761
0.999938
0.999807
1.00013
1.00045
1.00017
1.00095
1.00267
1.00359
1.00297
1.00218
1.00229
1.00204
1.00135
1.002
1.0023
1.00188
1.00291
1.00401
1.00332
1.00308
1.00424
1.00646
1.00175
1.0042
1.00732
1.00807
0.990032
1.0047
0.996363
0.989845
0.997128
1.00029
0.994299
0.993524
0.998344
0.997979
0.995944
0.997591
0.999291
0.996994
0.995496
0.997056
0.997272
0.995714
0.996686
0.998682
0.99886
0.998834
0.999876
1.00008
0.999976
1.00013
0.999916
0.999764
1.00147
1.00218
1.00209
1.00432
1.00594
1.00383
1.00286
1.00464
1.0031
1.00002
1.00206
1.0049
1.00241
1.00083
1.007
1.0066
0.998786
1.00424
1.01239
1.00173
0.995901
1.02302

VECTORS velocity double
3.1225e-017 0 0
1.17961e-016 -1.38778e-016 0
6.93889e-018 1.73472e-017 0
-4.85723e-017 6.245e-017 0
4.85723e-017 4.85723e-017 0
2.42861e-017 1.249e-016 0
-1.04083e-017 -1.04083e-017 0
1.49186e-016 1.42247e-016 0
5.20417e-017 -3.1225e-017 0
-1.31839e-016 9.02056e-017 0
1.249e-016 2.08167e-016 0
6.59195e-017 1.38778e-016 0
-2.22045e-016 1.249e-016 0
-1.42247e-016 6.245e-017 0
-1.21431e-016 1.21431e-016 0
6.245e-017 1.56125e-016 0
-5.55112e-017 -1.00614e-016 0
-1.70003e-016 7.28584e-017 0
4.51028e-017 6.59195e-017 0
2.08167e-017 2.08167e-016 0
0 6.93889e-017 0
-6.93889e-018 1.35308e-016 0
6.245e-017 6.93889e-018 0
-1.2837e-016 -2.42861e-017 0
-2.77556e-017 8.32667e-017 0
-3.46945e-017 1.00614e-016 0
5.55112e-017 2.22045e-016 0
-1.80411e-016 7.97973e-017 0
-2.22045e-016 5.55112e-017 0
-1.8735e-016 1.04083e-016 0
3.46945e-018 7.97973e-017 0
9.02056e-017 1.31839e-016 0
8.32667e-017 1.56125e-016 0
-1.04083e-017 1.45717e-016 0
-4.51028e-017 2.5327e-016 0
-1.38778e-017 -6.245e-017 0
-2.81025e-016 -2.11636e-016 0
-2.42861e-017 6.59195e-017 0
2.08167e-016 -6.93889e-017 0
-1.59595e-016 -2.08167e-017 0
-2.08167e-017 -7.63278e-017 0
-8.67362e-017 -1.35308e-016 0
-6.93889e-017 -7.97973e-017 0
-1.45717e-016 4.51028e-017 0
6.245e-017 -2.77556e-017 0
-3.46945e-018 -1.38778e-017 0
-1.249e-016 -3.46945e-017 0
6.93889e-017 3.46945e-018 0
6.93889e-018 4.85723e-017 0
-5.20417e-017 -1.38778e-016 0
9.36751e-017 6.245e-017 0
1.76942e-016 1.249e-016 0
-9.02056e-017 1.42247e-016 0
-2.5327e-016 1.04083e-017 0
1.49186e-016 1.42247e-016 0
1.8735e-016 -1.38778e-016 0
2.04697e-016 -2.11636e-016 0
-3.81639e-017 -1.73472e-017 0
-4.85723e-017 -1.249e-016 0
7.63278e-017 2.77556e-017 0
-1.38778e-017 -7.63278e-017 0
7.63278e-017 -1.11022e-016 0
-1.59595e-016 -1.66533e-016 0
-6.59195e-017 -3.46945e-018 0
4.85723e-017 1.38778e-017 0
6.93889e-018 -2.08167e-017 0
1.73472e-017 6.93889e-018 0
-6.59195e-017 -7.97973e-017 0
1.249e-016 0 0
-3.1225e-017 -9.02056e-017 0
4.16334e-017 -1.73472e-016 0
2.42861e-017 -2.46331e-016 0
7.63278e-017 -2.32453e-016 0
3.1225e-017 -5.20417e-017 0
-1.04083e-017 -1.59595e-016 0
1.49186e-016 -2.81025e-016 0
6.93889e-017 -2.70617e-016 0
-7.28584e-017 -2.22045e-016 0
-5.89806e-017 4.51028e-017 0
-2.60209e-016 4.85723e-017 0
-2.5327e-016 2.08167e-017 0
3.46945e-017 -6.245e-017 0
3.1225e-017 -2.08167e-017 0
1.07553e-016 -1.49186e-016 0
-1.31839e-016 -2.42861e-017 0
-1.76942e-016 -2.67147e-016 0
6.59195e-017 -1.66533e-016 0
9.02056e-017 -2.08167e-017 0
1.249e-016 1.04083e-016 0
-7.63278e-017 1.17961e-016 0
6.245e-017 2.11636e-016 0
-1.49186e-016 1.94289e-016 0
-6.93889e-018 0 0
1.35308e-016 -1.38778e-016 0
5.55112e-017 2.08167e-017 0
0 6.93889e-017 0
-7.28584e-017 -1.04083e-017 0
-2.77556e-017 -2.08167e-017 0
-1.07553e-016 6.59195e-017 0
3.1225e-017 -2.77556e-017 0
5.55112e-017 5.55112e-017 0
-2.18575e-016 1.04083e-016 0
-6.59195e-017 -4.51028e-017 0
1.38778e-016 1.42247e-016 0
-1.45717e-016 1.94289e-016 0
9.71445e-017 1.17961e-016 0
5.20417e-017 6.93889e-018 0
5.20417e-017 1.04083e-016 0
6.93889e-018 1.42247e-016 0
6.93889e-018 9.36751e-017 0
0 -2.08167e-016 0
4.51028e-017 -1.04083e-017 0
-3.46945e-018 1.04083e-017 0
-1.21431e-016 7.97973e-017 0
-1.249e-016 3.1225e-017 0
-1.11022e-016 2.77556e-017 0
6.245e-017 9.71445e-017 0
-6.93889e-018 5.55112e-017 0
7.28584e-017 1.9082e-016 0
-9.02056e-017 1.2837e-016 0
-4.51028e-017 1.38778e-017 0
1.11022e-016 -4.85723e-017 0
8.32667e-017 1.11022e-016 0
1.45717e-016 1.49186e-016 0
2.11636e-016 6.93889e-017 0
2.77556e-017 3.1225e-017 0
5.89806e-017 9.36751e-017 0
1.21431e-016 5.89806e-017 0
-1.38778e-017 1.07553e-016 0
-8.67362e-017 1.31839e-016 0
1.38778e-017 7.28584e-017 0
-3.1225e-017 -1.31839e-016 0
9.36751e-017 -1.56125e-016 0
1.73472e-017 -2.63678e-016 0
-3.19189e-016 6.93889e-017 0
-6.245e-017 -2.42861e-016 0
4.16334e-017 -5.55112e-017 0
5.89806e-017 -1.249e-016 0
-4.85723e-017 -2.498e-016 0
-5.55112e-017 -1.73472e-016 0
8.67362e-017 -1.35308e-016 0
1.63064e-016 -6.245e-017 0
7.63278e-017 -8.32667e-017 0
3.81639e-017 -5.20417e-017 0
1.07553e-016 1.2837e-016 0
3.81639e-017 1.2837e-016 0
-1.249e-016 4.16334e-017 0
9.71445e-017 7.97973e-017 0
-5.89806e-017 1.17961e-016 0
1.2837e-016 -2.08167e-017 0
-3.46945e-018 -2.42861e-017 0
-9.02056e-017 7.63278e-017 0
-1.04083e-017 2.60209e-016 0
1.11022e-016 1.97758e-016 0
4.51028e-017 1.76942e-016 0
-2.46331e-016 -1.49186e-016 0
7.28584e-017 3.1225e-017 0
4.16334e-017 1.17961e-016 0
-1.49186e-016 -7.97973e-017 0
-7.28584e-017 3.85109e-016 0
-2.08167e-017 -6.93889e-018 0
5.55112e-017 4.51028e-017 0
1.17961e-016 -1.52656e-016 0
-3.1225e-017 1.04083e-017 0
-1.07553e-016 -9.02056e-017 0
-6.93889e-018 8.67362e-017 0
3.81639e-017 -4.51028e-017 0
-2.08167e-017 8.32667e-017 0
1.38778e-016 -5.89806e-017 0
-4.51028e-017 -1.38778e-017 0
7.28584e-017 -7.63278e-017 0
-7.28584e-017 -1.04083e-016 0
1.42247e-016 6.93889e-018 0
1.97758e-016 -1.42247e-016 0
9.36751e-017 -1.00614e-016 0
2.08167e-016 -2.77556e-016 0
1.14492e-016 -2.11636e-016 0
8.32667e-017 -2.63678e-016 0
-3.1225e-017 -1.04083e-017 0
2.01228e-016 4.85723e-017 0
2.01228e-016 -6.93889e-018 0
1.31839e-016 -6.59195e-017 0
1.07553e-016 -1.94289e-016 0
9.36751e-017 -1.04083e-016 0
-2.77556e-017 -6.93889e-017 0
4.85723e-017 -9.71445e-017 0
1.66533e-016 4.16334e-017 0
1.00614e-016 -3.46945e-018 0
1.42247e-016 1.42247e-016 0
5.20417e-017 1.31839e-016 0
-1.04083e-016 1.38778e-017 0
6.59195e-017 -8.67362e-017 0
1.76942e-016 -1.2837e-016 0
3.67761e-016 7.63278e-017 0
1.66533e-016 -1.00614e-016 0
-6.93889e-018 -5.55112e-017 0
-1.35308e-016 -1.00614e-016 0
-9.02056e-017 -1.38778e-016 0
9.36751e-017 -6.93889e-017 0
4.16334e-017 3.81639e-017 0
1.66533e-016 2.77556e-017 0
3.1225e-017 5.55112e-017 0
-5.20417e-017 3.46945e-018 0
6.245e-017 -5.55112e-017 0
-6.93889e-018 -1.38778e-017 0
-4.16334e-017 1.07553e-016 0
5.55112e-017 -1.59595e-016 0
1.38778e-016 -2.04697e-016 0
-5.89806e-017 -1.70003e-016 0
-1.8735e-016 -3.1225e-017 0
-3.46945e-017 -6.245e-017 0
6.93889e-018 3.46945e-017 0
3.81639e-017 -6.59195e-017 0
-1.11022e-016 6.93889e-017 0
-3.81639e-017 6.93889e-018 0
-4.51028e-017 -3.1225e-017 0
-1.04083e-016 -3.1225e-017 0
-9.71445e-017 5.20417e-017 0
1.42247e-016 8.32667e-017 0
5.55112e-017 7.28584e-017 0
2.77556e-017 7.28584e-017 0
1.249e-016 6.93889e-017 0
1.249e-016 1.04083e-016 0
1.42247e-016 -1.17961e-016 0
7.97973e-017 1.2837e-016 0
1.00614e-016 -1.35308e-016 0
3.46945e-018 -1.45717e-016 0
5.89806e-017 -1.80411e-016 0
1.17961e-016 -1.17961e-016 0
9.02056e-017 -6.93889e-017 0
9.02056e-017 1.00614e-016 0
2.77556e-017 -6.59195e-017 0
1.14492e-016 -8.32667e-017 0
9.02056e-017 -7.97973e-017 0
-1.63064e-016 7.97973e-017 0
5.89806e-017 -4.51028e-017 0
7.28584e-017 6.93889e-018 0
1.04083e-016 -1.11022e-016 0
7.28584e-017 -2.08167e-017 0
-1.04083e-017 -1.73472e-017 0
5.20417e-017 -1.80411e-016 0
1.42247e-016 -1.2837e-016 0
2.70617e-016 -2.32453e-016 0
1.63064e-016 -1.73472e-017 0
1.04083e-017 0 0
6.93889e-018 -2.77556e-017 0
-2.77556e-017 -2.08167e-017 0
3.46945e-017 -1.42247e-016 0
2.77556e-017 -2.77556e-016 0
-1.38778e-017 2.08167e-017 0
6.59195e-017 -8.32667e-017 0
5.89806e-017 -2.18575e-016 0
-2.08167e-017 4.16334e-017 0
1.17961e-016 -2.77556e-016 0
9.36751e-017 -1.17961e-016 0
-4.16334e-017 -9.71445e-017 0
-4.51028e-017 3.81639e-017 0
-9.02056e-017 2.77556e-017 0
-6.93889e-018 -1.17961e-016 0
-2.11636e-016 6.245e-017 0
1.52656e-016 1.42247e-016 0
-3.81639e-017 1.31839e-016 0
-7.63278e-017 1.59595e-016 0
3.81639e-017 1.70003e-016 0
-6.93889e-018 1.9082e-016 0
6.93889e-018 -4.16334e-017 0
4.16334e-017 -1.07553e-016 0
-3.46945e-018 1.04083e-017 0
-3.81639e-017 -1.04083e-017 0
5.55112e-017 -3.46945e-017 0
2.42861e-017 -1.07553e-016 0
-3.46945e-018 5.20417e-017 0
-1.31839e-016 -7.97973e-017 0
-1.66533e-016 6.93889e-017 0
-4.51028e-017 4.16334e-017 0
3.46945e-017 -6.93889e-017 0
2.08167e-017 -2.77556e-017 0
2.67147e-016 -2.42861e-016 0
8.67362e-017 -1.04083e-016 0
9.02056e-017 6.93889e-017 0
-1.04083e-016 1.38778e-017 0
0 -1.76942e-016 0
-3.46945e-018 9.36751e-017 0
3.46945e-017 2.77556e-017 0
-1.249e-016 2.08167e-016 0
2.08167e-017 5.55112e-017 0
3.46945e-017 1.14492e-016 0
-6.93889e-018 -1.38778e-017 0
3.1225e-017 2.67147e-016 0
2.08167e-017 9.36751e-017 0
9.02056e-017 9.71445e-017 0
3.43475e-016 -3.46945e-018 0
8.32667e-017 -5.89806e-017 0
6.245e-017 8.67362e-017 0
-3.81639e-017 -6.93889e-017 0
1.07553e-016 -3.81639e-017 0
1.14492e-016 3.81639e-017 0
-1.97758e-016 1.97758e-016 0
-1.35308e-016 1.9082e-016 0
-8.67362e-017 2.81025e-016 0
-3.1225e-017 -1.52656e-016 0
-2.42861e-017 2.08167e-017 0
-6.245e-017 1.31839e-016 0
1.73472e-017 -3.1225e-017 0
-4.51028e-017 8.32667e-017 0
1.14492e-016 -1.80411e-016 0
4.51028e-017 -2.11636e-016 0
-4.16334e-017 -1.21431e-016 0
2.08167e-017 -1.249e-016 0
-3.81639e-017 -1.70003e-016 0
2.77556e-017 -1.2837e-016 0
6.245e-017 -5.89806e-017 0
6.245e-017 3.46945e-018 0