# vtk DataFile Version 4.0
SiwiRVisFile
ASCII
DATASET STRUCTURED_POINTS
DIMENSIONS 50 50 1
ORIGIN 0 0 0
SPACING 1 1 1
POINT_DATA 2500

SCALARS flags double 1
LOOKUP_TABLE default
1
1
1
1
1
1
1
1
1
1
1
1
1
1
1
1
1
1
1
1
1
1
1
1
1
1
1
1
1
1
1
1
1
1
1
1
1
1
1
1
1
1
1
1
1
1
1
1
1
1
1
1
1
1
1
1
1
1
1
1
1
1
1
1
1
1
1
1
1
1
1
1
1
1
1
1
1
1
1
1
1
1
1
1
1
1
1
1
1
1
1
1
1
1
1
1
1
1
1
1
1
1
1
1
1
1
1
1
1
1
1
1
1
1
1
1
1
1
1
1
1
1
1
1
1
1
1
1
1
1
1
1
1
1
1
1
1
1
1
1
1
1
1
1
1
1
1
1
1
1
1
1
1
1
1
1
1
1
1
1
1
1
1
1
1
1
1
1
1
1
1
1
1
1
1
1
1
1
1
1
1
1
1
1
1
1
1
1
1
1
1
1
1
1
1
1
1
1
1
1
1
1
1
1
1
1
1
1
1
1
1
1
1
1
1
1
1
1
1
1
1
1
1
1
1
1
1
1
1
1
1
1
1
1
1
1
1
1
1
1
1
1
1
1
1
1
1
1
1
1
1
1
1
1
1
1
1
1
1
1
1
1
1
1
1
1
1
1
1
1
1
1
1
1
1
1
1
1
1
1
1
1
1
1
1
1
1
1
1
1
1
1
1
1
1
1
1
1
1
1
1
1
1
1
1
1
1
1
1
1
1
1
1
1
1
1
1
1
1
1
1
1
1
1
1
1
1
1
1
1
1
1
1
1
1
1
1
1
1
1
1
1
1
1
1
1
1
1
1
1
1
1
1
1
1
1
1
1
1
1
1
1
1
1
1
1
1
1
1
1
1
1
1
1
1
1
1
1
1
1
1
1
1
1
1
1
1
1
1
1
1
1
1
1
1
1
1
1
1
1
1
1
1
1
1
1
1
1
1
1
1
1
1
1
1
1
1
1
1
1
1
1
1
1
1
1
1
1
1
1
1
1
1
1
1
1
1
1
1
1
1
1
1
1
1
1
1
1
1
1
1
1
1
1
1
1
1
1
1
1
1
1
1
1
1
1
1
1
1
1
1
1
1
1
1
1
1
1
1
1
1
1
1
1
1
1
1
1
1
1
1
1
1
1
1
1
1
1
1
1
1
1
1
1
1
1
1
1
1
1
1
1
1
1
1
1
1
1
1
1
1
1
1
1
1
1
1
1
1
1
1
1
1
1
1
1
1
1
1
1
1
1
1
1
1
1
1
1
1
1
1
1
1
1
1
1
1
1
1
1
1
1
1
1
1
1
1
1
1
1
1
1
1
1
1
1
1
1
1
1
1
1
1
1
1
1
1
1
1
1
1
1
1
1
1
1
1
1
1
1
1
1
1
1
1
1
1
1
1
1
1
1
1
1
1
1
1
1
1
1
1
1
1
1
1
1
1
1
1
1
1
1
1
1
1
1
1
1
1
1
1
1
1
1
1
1
1
1
1
1
1
1
1
1
1
1
1
1
1
1
1
1
1
1
1
1
1
1
1
1
1
1
1
1
1
1
1
1
1
1
1
1
1
1
1
1
1
1
1
1
1
1
1
1
1
1
1
1
1
1
1
1
1
1
1
1
1
1
1
1
1
1
1
1
1
1
1
1
1
1
1
1
1
1
1
1
1
1
1
1
1
1
1
1
1
1
1
1
1
1
1
1
1
1
1
1
1
1
1
1
1
1
1
1
1
1
1
1
1
1
1
1
1
1
1
1
1
1
1
1
1
1
1
1
1
1
1
1
1
1
1
1
1
1
1
1
1
1
1
1
1
1
1
1
1
1
1
1
1
1
1
1
1
1
1
1
1
1
1
1
1
1
1
1
1
1
1
1
1
1
1
1
1
1
1
1
1
1
1
1
1
1
1
1
1
1
1
1
1
1
1
1
1
1
1
1
1
1
1
1
1
1
1
1
1
1
1
1
1
1
1
1
1
1
1
1
1
1
1
1
1
1
1
1
1
1
1
1
1
1
1
1
1
1
1
1
1
1
1
1
1
1
1
1
1
1
1
1
1
1
1
1
1
1
1
1
1
1
1
1
1
1
1
1
1
1
1
1
1
1
1
1
1
1
1
1
1
1
1
1
1
1
1
1
1
1
1
1
1
1
1
1
1
1
1
1
1
1
1
1
1
1
1
1
1
1
1
1
1
1
1
1
1
1
1
1
1
1
1
1
1
1
1
1
1
1
1
1
1
1
1
1
1
1
1
1
1
1
1
1
1
1
1
1
1
1
1
1
1
1
1
1
1
1
1
1
1
1
1
1
1
1
1
1
1
1
1
1
1
1
1
1
1
1
1
1
1
1
1
1
1
1
1
1
1
1
1
1
1
1
1
1
1
1
1
1
1
1
1
1
1
1
1
1
1
1
1
1
1
1
1
1
1
1
1
1
1
1
1
1
1
1
1
1
1
1
1
1
1
1
1
1
1
1
1
1
1
1
1
1
1
1
1
1
1
1
1
1
1
1
1
1
1
1
1
1
1
1
1
1
1
1
1
1
1
1
1
1
1
1
1
1
1
1
1
1
1
1
1
1
1
1
1
1
1
1
1
1
1
1
1
1
1
1
1
1
1
1
1
1
1
1
1
1
1
1
1
1
1
1
1
1
1
1
1
1
1
1
1
1
1
1
1
1
1
1
1
1
1
1
1
1
1
1
1
1
1
1
1
1
1
1
1
1
1
1
1
1
1
1
1
1
1
1
1
1
1
1
1
1
1
1
1
1
1
1
1
1
1
1
1
1
1
1
1
1
1
1
1
1
1
1
1
1
1
1
1
1
1
1
1
1
1
1
1
1
1
1
1
1
1
1
1
1
1
1
1
1
1
1
1
1
1
1
1
1
1
1
1
1
1
1
1
1
1
1
1
1
1
1
1
1
1
1
1
1
1
1
1
1
1
1
1
1
1
1
1
1
1
1
1
1
1
1
1
1
1
1
1
1
1
1
1
1
1
1
1
1
1
1
1
1
1
1
1
1
1
1
1
1
1
1
1
1
1
1
1
1
1
1
1
1
1
1
1
1
1
1
1
1
1
1
1
1
1
1
1
1
1
1
1
1
1
1
1
1
1
1
1
1
1
1
1
1
1
1
1
1
1
1
1
1
1
1
1
1
1
1
1
1
1
1
1
1
1
1
1
1
1
1
1
1
1
1
1
1
1
1
1
1
1
1
1
1
1
1
1
1
1
1
1
1
1
1
1
1
1
1
1
1
1
1
1
1
1
1
1
1
1
1
1
1
1
1
1
1
1
1
1
1
1
1
1
1
1
1
1
1
1
1
1
1
1
1
1
1
1
1
1
1
1
1
1
1
1
1
1
1
1
1
1
1
1
1
1
1
1
1
1
1
1
1
1
1
1
1
1
1
1
1
1
1
1
1
1
1
1
1
1
1
1
1
1
1
1
1
1
1
1
1
1
1
1
1
1
1
1
1
1
1
1
1
1
1
1
1
1
1
1
1
1
1
1
1
1
1
1
1
1
1
1
1
1
1
1
1
1
1
1
1
1
1
1
1
1
1
1
1
1
1
1
1
1
1
1
1
1
1
1
1
1
1
1
1
1
1
1
1
1
1
1
1
1
1
1
1
1
1
1
1
1
1
1
1
1
1
1
1
1
1
1
1
1
1
1
1
1
1
1
1
1
1
1
1
1
1
1
1
1
1
1
1
1
1
1
1
1
1
1
1
1
1
1
1
1
1
1
1
1
1
1
1
1
1
1
1
1
1
1
1
1
1
1
1
1
1
1
1
1
1
1
1
1
1
1
1
1
1
1
1
1
1
1
1
1
1
1
1
1
1
1
1
1
1
1
1
1
1
1
1
1
1
1
1
1
1
1
1
1
1
1
1
1
1
1
1
1
1
1
1
1
1
1
1
1
1
1
1
1
1
1
1
1
1
1
1
1
1
1
1
1
1
1
1
1
1
1
1
1
1
1
1
1
1
1
1
1
1
1
1
1
1
1
1
1
1
1
1
1
1
1
1
1
1
1
1
1
1
1
1
1
1
1
1
1
1
1
1
1
1
1
1
1
1
1
1
1
1
1
1
1
1
1
1
1
1
1
1
1
1
1
1
1
1
1
1
1
1
1
1
1
1
1
1
1
1
1
1
1
1
1
1
1
1
1
1
1
1
1
1
1
1
1
1
1
1
1
1
1
1
1
1
1
1
1
1
1
1
1
1
1
1
1
1
1
1
1
1
1
1
1
1
1
1
1
1
1
1
1
1
1
1
1
1
1
1
1
1
1
1
1
1
1
1
1
1
1
1
1
1
1
1
1
1
1
1
1
1
1
1
1
1
1
1
1
1
1
1
1
1
1
1
1
1
1
1
1
1
1
1
1
1
1
1
1
1
1
1
1
1
1
1
1
1
1
1
1
1
1
1
1
1
1
1
1
1
1
1
1
1
1
1
1
1
1
1
1
1
1
1
1
1
1
1
1
1
1
1
1
1
1
1
1
1
1
1
1
1
1
1
1
1
1
1
1
1
1
1
1
1
1
1
1
1
1
1
1
1
1
1
1
1
1
1
1
1
1
1
1
1
1
1
1
1
1
1
1
1
1
1
1
1
1
1
1
1
1
1
1
1
1
1
1
1
1
1
1
1
1
1
1
1
1
1
1
1
1
1
1
1
1
1
1
1
1
1
1
1
1
1
1
1
1
1
1
1
1
1
1
1
1
1
1
1
1
1
1
1
1
1
1
1
1
1
1
1
1
1
1
1
1
1
1
1
1
1
1
1
1
1
1
1
1
1
1
1
1
1
1
1
1
1
1
1
1
1
1
1
1
1
1
1
1
1
1
1
1
1
1
1
1
1
1
1
1
1
1
1
1
1
1
1
1
1
1
1
1
1
1
1
1
1
1
1
1
1
1
1
1
1
1
1
1
1
1
1
1
1
1
1
1
1
1
1
1
1
1
1
1
1
1
1
1
1
1
1
1
1
1
1
1
1
1
1
1
1
1
1
1
1
1
1
1
1
1
1
1
1
1
1
1
1
1
1
1
1
1
1
1
1
1
1
1
1
1
1
1
1
1
1
1
1
1
1
1
1
1
1
1
1
1
1
1
1
1
1
1
1
1
1
1
1
1
1
1
1
1
1
1
1
1
1
1
1
1
1
1
1
1
1
1
1
1
1
1
1
1
1
1
1
1
1
1
1
1
1
1
1
1
1
1
1
1
1
1
1
1
1
1
1
1
1
1
1
1
1
1
1
1
1
1
1
1
1
1
1
1
1
1
1
1
1
1
1
1
1
1
1
1
1
1
1
1
1
1
1
1
1
1
1
1
1
1
1
1
1
1
1
1
1
1
1
1
1
1
1
1
1
1
1
1
1
1
1
1
1
1
1
1
1
1
1
1
1
1
1
1
1
1
1
1
1
1
1
1
1
1
1
1
1
1
1
1
1
1
1
1
1
1
1
1
1
1
1
1
1
1
1
1
1
1
1
1
1
1
1
1
1
1
1
1
1
1
1
1
1
1
1
1
1
1
1
1
1
1
1
1
1
1
1
1
1
1
1
1
1
1
1
1
1
1
1
1
1
1
1
1
1
1
1
1
1
1
1
1
1
1
1
1
1
1
1
1
1
1
1
1
1
1
1
1
1
1
1
1
1
1
1
1
1

SCALARS density double 1
LOOKUP_TABLE default
1
1
1
1
1
1
1
1
1
1
1
1
1
1
1
1
1
1
1
1
1
1
1
1
1
1
1
1
1
1
1
1
1
1
1
1
1
1
1
1
1
1
1
1
1
1
1
1
1
1
1
1
1
1
1
1
1
1
1
1
1
1
1
1
1
1
1
1
1
1
1
1
1
1
1
1
1
1
1
1
1
1
1
1
1
1
1
1
1
1
1
1
1
1
1
1
1
1
1
1
1
1
1
1
1
1
1
1
1
1
1
1
1
1
1
1
1
1
1
1
1
1
1
1
1
1
1
1
1
1
1
1
1
1
1
1
1
1
1
1
1
1
1
1
1
1
1
1
1
1
1
1
1
1
1
1
1
1
1
1
1
1
1
1
1
1
1
1
1
1
1
1
1
1
1
1
1
1
1
1
1
1
1
1
1
1
1
1
1
1
1
1
1
1
1
1
1
1
1
1
1
1
1
1
1
1
1
1
1
1
1
1
1
1
1
1
1
1
1
1
1
1
1
1
1
1
1
1
1
1
1
1
1
1
1
1
1
1
1
1
1
1
1
1
1
1
1
1
1
1
1
1
1
1
1
1
1
1
1
1
1
1
1
1
1
1
1
1
1
1
1
1
1
1
1
1
1
1
1
1
1
1
1
1
1
1
1
1
1
1
1
1
1
1
1
1
1
1
1
1
1
1
1
1
1
1
1
1
1
1
1
1
1
1
1
1
1
1
1
1
1
1
1
1
1
1
1
1
1
1
1
1
1
1
1
1
1
1
1
1
1
1
1
1
1
1
1
1
1
1
1
1
1
1
1
1
1
1
1
1
1
1
1
1
1
1
1
1
1
1
1
1
1
1
1
1
1
1
1
1
1
1
1
1
1
1
1
1
1
1
1
1
1
1
1
1
1
1
1
1
1
1
1
1
1
1
1
1
1
1
1
1
1
1
1
1
1
1
1
1
1
1
1
1
1
1
1
1
1
1
1
1
1
1
1
1
1
1
1
1
1
1
1
1
1
1
1
1
1
1
1
1
1
1
1
1
1
1
1
1
1
1
1
1
1
1
1
1
1
1
1
1
1
1
1
1
1
1
1
1
1
1
1
1
1
1
1
1
1
1
1
1
1
1
1
1
1
1
1
1
1
1
1
1
1
1
1
1
1
1
1
1
1
1
1
1
1
1
1
1
1
1
1
1
1
1
1
1
1
1
1
1
1
1
1
1
1
1
1
1
1
1
1
1
1
1
1
1
1
1
1
1
1
1
1
1
1
1
1
1
1
1
1
1
1
1
1
1
1
1
1
1
1
1
1
1
1
1
1
1
1
1
1
1
1
1
1
1
1
1
1
1
1
1
1
1
1
1
1
1
1
1
1
1
1
1
1
1
1
1
1
1
1
1
1
1
1
1
1
1
1
1
1
1
1
1
1
1
1
1
1
1
1
1
1
1
1
1
1
1
1
1
1
1
1
1
1
1
1
1
1
1
1
1
1
1
1
1
1
1
1
1
1
1
1
1
1
1
1
1
1
1
1
1
1
1
1
1
1
1
1
1
1
1
1
1
1
1
1
1
1
1
1
1
1
1
1
1
1
1
1
1
1
1
1
1
1
1
1
1
1
1
1
1
1
1
1
1
1
1
1
1
1
1
1
1
1
1
1
1
1
1
1
1
1
1
1
1
1
1
1
1
1
1
1
1
1
1
1
1
1
1
1
1
1
1
1
1
1
1
1
1
1
1
1
1
1
1
1
1
1
1
1
1
1
1
1
1
1
1
1
1
1
1
1
1
1
1
1
1
1
1
1
1
1
1
1
1
1
1
1
1
1
1
1
1
1
1
1
1
1
1
1
1
1
1
1
1
1
1
1
1
1
1
1
1
1
1
1
1
1
1
1
1
1
1
1
1
1
1
1
1
1
1
1
1
1
1
1
1
1
1
1
1
1
1
1
1
1
1
1
1
1
1
1
1
1
1
1
1
1
1
1
1
1
1
1
1
1
1
1
1
1
1
1
1
1
1
1
1
1
1
1
1
1
1
1
1
1
1
1
1
0.999999
0.999999
0.999999
0.999999
0.999999
0.999999
0.999999
0.999999
1
1
1
1
1
1
1
1
1
1
1
1
1
1
1
1
1
1
1
1
1
1
1
1
1
1
1
1
1
1
1
1
1
1
1
1
1
1
1
1
1
1
1
1
1
1
1
1
1
1
1
1
1
0.999999
0.999999
0.999999
0.999999
0.999999
0.999999
0.999999
1
1
1
1
1
1
1
1
0.999999
1
1
1
1
1
1
1
1
1
1
1
1
1
1
1
1
1
1
1
1
0.999999
1
0.999994
1
1
1
1
1
1
1
1
1
1
1
1
1
1
0.999998
0.999998
1
0.999999
0.999996
0.999998
1
0.999998
0.999998
1
1
1
1
1
1
1
1
1
1
1
0.999999
0.999998
0.999998
0.999998
0.999998
0.999998
0.999998
0.999998
0.999998
0.999999
0.999999
0.999999
1
0.999997
1
1.00001
0.999998
0.999998
0.999998
0.999997
0.999997
0.999998
0.999998
0.999999
1
1
1
1
0.999999
1.00001
1.00001
0.999996
0.999996
1.00001
1
0.999988
0.999994
1
1
0.999999
0.999999
1.00001
1.00001
0.999998
0.99999
1
1
0.999988
0.999993
1
0.999995
0.999996
0.999999
0.999999
1
1
1
1
1
1
1
1
1
1
0.999994
1
0.999997
1
1
1
1
1
1
0.999997
1
0.999996
0.99999
1.00002
1.00001
0.999973
1.00001
1.00004
0.999986
0.999984
1.00003
1.00001
0.999983
1
1.00001
0.999989
0.999995
1.00002
0.999991
0.999971
1.00001
1.00001
0.999959
0.999989
1.00003
0.999992
0.999987
1.00001
1.00001
1
1.00001
1
1
1
1
1
1
1
0.999984
1.00001
1.00001
0.999998
1.00001
1
1
1.00001
1
1
1.00001
0.999995
1
1.00004
0.999976
0.999945
1.00006
1.00003
0.999896
1
1.00008
0.999954
0.999965
1.00005
1.00002
0.999984
0.999995
1
1.00001
0.999979
0.999947
1.00004
1.00005
0.999928
1
1.00011
0.999976
0.999941
1.00006
1.00002
0.999964
0.999998
1
0.999985
0.999993
0.99999
0.99999
0.999992
0.999993
0.999997
0.999986
1
0.999992
0.99999
1
1
0.999995
1
1.00001
0.99998
1.00002
1.00003
0.999922
1
1.00015
0.999928
0.999844
1.00014
1.00006
0.999803
1.00001
1.00011
0.999912
0.999955
1.00008
1
0.999967
1.00003
0.999999
0.999923
1.00004
1.00009
0.99989
0.999983
1.00019
0.999938
0.999856
1.00015
1.00006
0.999843
0.999994
1.00007
0.99996
0.999972
1.00002
0.999992
0.999999
1
1
0.999992
1.00004
1
0.999953
1.00002
0.999977
1
0.999986
0.999975
1.00004
0.999962
0.999886
1.00012
1.0001
0.999729
0.999971
1.0003
0.999893
0.999761
1.00026
1.0001
0.999748
1.00006
1.00015
0.99988
0.999944
1.00007
1.00003
0.999974
0.999927
1.00005
1.00012
0.999852
0.999928
1.00025
0.999906
0.999737
1.00022
1.00011
0.999708
1.00003
1.00027
0.999911
0.999899
1.00012
1.00004
0.999973
1.00003
1.00002
1
1.00001
1
1.00003
0.999895
0.999969
0.999951
0.99999
1.00004
0.999902
0.999991
1.00021
0.999874
0.999692
1.00028
1.0002
0.999599
0.999967
1.0004
0.999843
0.99974
1.00033
1.00011
0.999701
1.00009
1.00016
0.999864
0.999976
1.00008
0.999925
1.00002
1.00014
0.999852
0.999893
1.00029
0.99991
0.999663
1.00024
1.00018
0.999627
1.00003
1.00039
0.999818
0.999731
1.00029
1.00011
0.999786
1
1.00008
0.999956
0.999999
1.00006
1
1.00012
0.999874
0.999899
0.999956
0.99986
1.00013
1.0001
0.999662
1.00002
1.0005
0.999833
0.99963
1.0004
1.00018
0.999604
1.00002
1.00036
0.999806
0.999675
1.00032
1.0001
0.999687
1.00009
1.00016
0.999859
0.999899
1.00009
1.00015
0.999847
0.999888
1.00031
0.999931
0.999672
1.0003
1.00021
0.999653
0.999948
1.00037
0.999824
0.999603
1.00033
1.00014
0.999512
0.999976
1.00031
0.999894
0.999874
1.00014
1.00006
1.0001
1.00014
0.999825
0.999687
1.00003
0.999738
0.999651
1.00038
1.0002
0.999428
1.00003
1.00047
0.999743
0.999758
1.00036
1.00006
0.999642
0.999971
1.00029
0.999888
0.999658
1.00032
1.00012
0.999696
1.0001
1.00009
0.999903
1.0001
0.999922
0.999874
1.0003
0.999916
0.999664
1.0003
1.00013
0.999721
0.999998
1.00034
0.999954
0.999652
1.00022
1.00025
0.999569
0.99999
1.00053
0.99981
0.999658
1.00032
1.00025
0.999951
1.00034
1.00014
0.999779
0.999147
0.999631
1.00011
0.999355
0.999388
1.00037
1.00004
0.999492
1.00009
1.00024
0.9997
0.999782
1.00028
1.00006
0.999888
0.999927
1.00028
0.999931
0.999667
1.00033
1.00011
0.999676
1.00013
1.00021
0.999804
0.999842
1.00032
0.99993
0.999646
1.00029
1.00011
0.999738
1.00005
1.00011
0.999969
0.999746
1.0002
1.00029
0.999782
0.999901
1.00045
0.999928
0.999658
1.00055
1.00056
0.999894
1.00033
1.00079
1.0002
0.999592
0.999257
0.998603
0.999386
0.999866
0.999261
0.999445
1.00026
0.9999
0.999708
1.00006
1.00023
0.999928
0.9999
1.0002
1
0.999955
0.99994
1.00025
0.999905
0.999626
1.00034
1.00005
0.999787
1.00002
0.999957
1.00021
0.999999
0.999642
1.00033
1.00015
0.999767
1.00003
1.00005
1.00001
0.999794
1.00005
1.00005
0.999746
0.9999
1.00024
1.00005
0.999726
1.00048
1.00061
1.00008
1.0006
1.00125
1.00058
1.00039
0.998027
0.999709
0.999071
0.998024
0.998911
0.999336
0.999013
0.999389
0.999987
0.999974
0.999917
0.999896
1.00017
0.999727
0.999867
1.00023
0.999924
0.999876
0.999954
1.00028
0.999892
0.999697
1.00037
0.99996
0.999696
1.00029
1.00009
0.999615
1.00024
1.00016
0.999732
0.999993
1.00011
1.00008
0.999772
1.00007
1.00028
0.999821
1.00008
1.00011
0.999981
0.999961
1.00055
1.00085
1.00054
1.0009
1.0017
1.00066
1.00018
1.00159
0.99807
0.998037
0.998129
0.997705
0.997627
0.997991
0.998523
0.998664
0.998971
0.999663
0.999687
0.999752
0.99996
1.00043
0.999566
0.999789
1.00033
0.999904
1.00001
0.999916
1.00032
0.999824
0.999784
1.00028
1.00014
0.99989
0.99969
1.00015
1.00024
0.999707
1.00002
0.999989
1.00013
0.999684
1.00013
1.00046
0.999612
0.999999
1.00025
1.00025
1.00024
1.00091
1.00116
1.00112
1.00168
1.00198
1.00179
1.00134
1.00175
1.00131
0.998541
0.996475
0.996672
0.998203
0.997542
0.996868
0.99757
0.998105
0.998037
0.998803
1.00002
0.9997
0.999694
0.999985
1.00058
0.999727
0.999883
1.00022
0.999918
0.99989
0.999917
1.00029
0.999751
0.999897
1.00031
0.999685
1.00005
1.00031
0.999754
1
1.00012
1.00013
0.999788
1.00002
1.00031
0.99945
0.999885
1.0003
1.00021
0.999838
1.00093
1.00159
1.00143
1.00186
1.00256
1.00185
1.00123
1.0024
1.00286
1.00106
0.996144
0.997668
0.99801
0.996999
0.997255
0.996919
0.997016
0.997402
0.998086
0.997359
0.998514
0.999514
0.99964
0.999733
0.999783
1.00047
0.999491
0.999933
1.00018
1.00011
0.999772
1.00002
1.00031
0.999747
0.999726
1.00024
1.00032
0.999734
0.999875
1.00022
0.999949
0.999802
0.999947
1.00052
0.999571
1.00008
1.00033
1.00024
1.00025
1.00115
1.00223
1.00144
1.00198
1.00236
1.00235
1.00187
1.00251
1.00131
1.00144
1.00313
0.995921
0.998458
0.997816
0.995681
0.998172
0.998391
0.996339
0.996254
0.99682
0.997923
0.997061
0.99875
0.999356
0.999481
0.999702
0.999916
1.00061
0.999683
0.999812
1.00024
1.0001
0.999748
1.00011
1.00025
0.999788
1.00023
0.999785
0.999772
1.00023
1
0.999735
1.00008
1.00036
0.999475
0.999971
1.00032
1.00033
1.00041
1.00096
1.0025
1.00157
1.00247
1.00313
1.00304
1.00135
1.00123
1.00375
1.00179
1.00122
1.00303
0.998811
0.997519
0.997492
0.998071
0.998904
0.997198
0.998026
0.997444
0.997244
0.99712
0.998001
0.99717
0.998831
0.999686
0.999913
0.999635
0.999913
1.00042
0.999738
0.999776
1.00018
1.00002
0.999619
1.00019
1.00031
0.999719
0.999714
1.00037
1.00013
0.999807
1.00011
1.00031
0.999661
0.999932
1.00034
0.999992
1.00006
1.00083
1.00224
1.00155
1.00221
1.00237
1.00209
1.00149
1.00252
1.00115
1.00161
1.0023
1.00279
1.00083
0.997301
0.99504
0.997729
0.99836
0.997421
0.995872
0.998764
0.997975
0.996071
0.995983
0.996957
0.997955
0.997014
0.998672
0.999403
0.999696
0.999619
0.999956
1.00034
0.999853
0.999911
1.00028
0.999988
0.999656
1.00007
0.999898
1.00035
1.00015
0.999662
0.99994
1.00019
0.9997
0.999891
1.00037
1.00022
1.00031
1.00098
1.00251
1.00179
1.00242
1.00348
1.0034
1.00201
1.00114
1.00356
1.00261
1.00175
1.00182
1.00468
1.00299
0.995952
0.996866
0.997273
0.994668
0.996971
0.998971
0.996741
0.99713
0.99762
0.997839
0.996201
0.996794
0.99823
0.997396
0.99927
0.999948
1.00007
0.999619
0.999997
1.00024
0.999907
0.999843
1.00043
0.999918
0.999747
1.00024
1.00017
0.999504
0.999992
1.00019
0.999858
0.999869
1.00036
0.999928
0.999829
1.00045
1.00218
1.00145
1.00252
1.00339
1.00205
1.00209
1.00272
1.0032
1.00094
1.00238
1.0053
1.00244
1.0026
1.0038
0.997626
0.998512
0.998034
0.996524
0.998776
0.99768
0.997915
0.997385
0.999461
0.997644
0.996283
0.996579
0.997321
0.998544
0.997854
0.999044
1.00008
1.00001
0.999618
0.999826
1.0002
0.999667
0.999896
1.00034
1.00001
1.00001
0.999623
0.999979
1.00047
0.999922
1
1.0003
1.00006
0.99976
1.00059
1.00177
1.0012
1.00218
1.00302
1.00338
1.00246
1.00079
1.00234
1.00209
1.00249
1.00117
1.00315
1.00231
1.00188
1.00223
0.999865
0.994064
0.99677
0.99851
0.996647
0.993872
0.997424
0.998587
0.994771
0.996345
0.99793
0.99648
0.995417
0.996825
0.998283
0.998501
0.999181
1.00035
1.00018
0.999867
1.00008
1.00029
0.999592
0.999957
1.00012
0.99988
0.999985
1.00052
0.999823
0.999686
1.00004
0.999928
0.999485
1.00043
1.00124
1.00141
1.0026
1.00423
1.00359
1.00207
1.00353
1.00514
1.00147
1.00232
1.00634
1.00392
1.00178
1.00341
1.00631
1.00071
0.996891
0.995812
0.998411
0.996903
0.996362
0.996008
0.997426
0.997184
0.998012
0.997923
0.998831
0.996927
0.997097
0.997155
0.998155
0.999417
0.998927
0.999532
1.00011
1.00012
0.999646
1.00033
1.00019
0.999771
0.999942
1.00005
1.00026
0.999871
0.999454
1.00027
1.00007
0.999811
1.00018
1.00093
1.00042
1.00143
1.00269
1.00276
1.00302
1.00151
1.00194
1.00173
1.00274
1.00289
1.00328
1.00358
1.00387
1.00183
1.00377
1.00353
0.993931
0.998246
0.99873
0.9929
0.997708
0.999343
0.996844
0.995695
0.997959
0.998778
0.994446
0.996492
0.997612
0.995866
0.995981
0.997913
0.999592
0.999355
0.999533
1.00011
0.999866
0.999638
1.00027
1.00012
0.999982
1.00002
0.999899
0.999617
1.00032
1.00039
0.999797
1.00016
1.00056
1.00022
1.00151
1.00371
1.00428
1.00276
1.00341
1.00552
1.00163
1.00157
1.00434
1.00386
1.00103
1.00226
1.0071
1.00173
1.00188
1.00639
1.00003
0.994289
0.996557
0.996672
0.997633
0.995978
0.99711
0.997165
0.996391
0.996844
0.998053
0.997427
0.99672
0.996494
0.997342
0.997772
0.999215
1.00019
1.00004
0.999888
1.00045
0.999783
0.999766
1.00006
1.00004
0.999963
0.999919
1.00022
1.0004
0.999466
0.999746
0.999981
0.999724
1.00033
1.00202
1.00275
1.00359
1.00348
1.00263
1.00191
1.00339
1.00411
1.00269
1.00287
1.00442
1.00296
1.00289
1.00374
1.00635
1.00027
0.996104
0.99292
0.995884
0.998246
0.996104
0.994019
0.998746
0.998169
0.994588
0.996581
0.998649
0.997338
0.99522
0.996945
0.997619
0.997018
0.997853
0.999208
1.0001
0.99956
0.999999
1.00034
0.999909
0.999905
0.999995
1
1.0001
1.00014
0.999595
0.999683
1.00054
0.99996
1.00032
1.00188
1.00325
1.00271
1.00309
1.00495
1.00329
1.0013
1.00312
1.0055
1.00247
1.00146
1.00588
1.00402
1.00134
1.00447
1.00694
1.00466
0.995449
0.996442
0.999693
0.992935
0.996985
0.999128
0.995758
0.995816
0.998316
0.998666
0.996027
0.996409
0.998906
0.996948
0.995421
0.997612
0.999126
0.999238
1.00005
1.00022
0.999617
1.00008
1.00018
1.00003
1.00001
0.999987
0.999978
0.999801
0.999794
1.00047
0.999948
0.999488
1.00054
1.001
1.00237
1.00488
1.00392
1.00137
1.00326
1.00409
1.00122
1.00146
1.00442
1.00536
1.00089
1.00306
1.00789
1.00049
1.00371
1.0054
0.994467
1.00003
0.99755
0.992974
0.997084
0.997677
0.994866
0.995369
0.998904
0.997624
0.994768
0.99677
0.997371
0.996026
0.995544
0.997488
0.99853
0.998897
0.999234
1.00028
1
0.999741
0.99993
0.999992
1.00002
0.999979
1
1.00005
1.0003
1.00009
0.999317
1.00041
1.00142
1.00177
1.00265
1.00511
1.00513
1.00324
1.00281
1.00512
1.00309
1.00101
1.00442
1.00523
1.00235
1.00286
1.00717
1.0031
1.00099
1.00605
1.00197
0.985993
0.993844
0.999486
0.996587
0.994051
0.997251
0.999924
0.995794
0.996775
0.998689
0.997509
0.995126
0.996913
0.998605
0.997586
0.997702
1.00018
1.00019
1.00006
1.0004
1.00016
0.999989
0.99999
0.999989
1.00001
1.00001
1.00002
0.999842
0.999402
0.99971
1.00001
0.99934
1.00194
1.00349
1.00246
1.00317
1.00505
1.00286
1.00111
1.00333
1.00522
1.00061
1.00278
1.00646
1.00451
1.00034
1.00595
1.0141
0.997824
0.992628
0.991401
0.997924
0.996315
0.996366
0.996443
0.997255
0.997487
0.996482
0.997201
0.996325
0.996058
0.996808
0.996825
0.996023
0.996585
0.998071
0.999293
0.999415
0.999187
0.999682
1.00005
1.00003
1.00006
0.999964
1.00003
0.999937
0.999964
0.999861
1.00021
1.00105
1.00101
1.00081
1.0026
1.00477
1.00535
1.00414
1.00347
1.00394
1.00306
1.00198
1.00356
1.00244
1.00227
1.0043
1.0048
1.00442
1.00271
1.00848
1.00965
0.989301
1.00617
0.996343
0.989211
0.994897
1.00053
0.994394
0.996423
0.999429
0.998291
0.994712
0.996025
0.998291
0.995972
0.99551
0.998587
1.00001
0.998904
0.999813
1.00046
1.0002
1.00007
1
1.00003
0.999978
1.00002
0.999964
0.999985
0.999935
0.999809
0.999229
0.999765
1.00179
1.00058
1.00133
1.00539
1.00565
1.00205
1.0036
1.00576
1.0014
1.00044
1.00473
1.00672
0.998712
1.00524
1.01237
1.00269
0.994338
1.02248

VECTORS velocity double
2.42861e-017 -5.55112e-017 0
-7.97973e-017 1.07553e-016 0
-1.07553e-016 -7.63278e-017 0
4.51028e-017 -6.245e-017 0
-5.89806e-017 -1.38778e-017 0
-6.93889e-018 -5.89806e-017 0
1.73472e-016 -2.39392e-016 0
8.32667e-017 -1.00614e-016 0
4.85723e-017 -1.38778e-017 0
1.35308e-016 -3.46945e-017 0
1.73472e-017 -1.42247e-016 0
-1.38778e-016 -2.01228e-016 0
3.1225e-017 0 0
-3.46945e-017 2.08167e-017 0
3.46945e-018 7.28584e-017 0
-1.17961e-016 -6.93889e-017 0
-3.46945e-017 2.77556e-017 0
1.45717e-016 -4.85723e-017 0
1.38778e-017 -1.45717e-016 0
4.85723e-017 -1.45717e-016 0
-6.93889e-017 -1.31839e-016 0
8.67362e-017 -9.36751e-017 0
5.55112e-017 -4.51028e-017 0
-1.38778e-017 -5.20417e-017 0
-9.36751e-017 -1.31839e-016 0
-3.46945e-018 -9.71445e-017 0
1.73472e-017 -2.32453e-016 0
4.85723e-017 -7.28584e-017 0
1.31839e-016 -3.1225e-017 0
7.28584e-017 4.16334e-017 0
-1.00614e-016 -5.55112e-017 0
-1.07553e-016 -6.93889e-018 0
5.55112e-017 -1.14492e-016 0
1.38778e-017 -1.9082e-016 0
-2.08167e-017 1.38778e-017 0
4.16334e-017 1.52656e-016 0
1.07553e-016 2.42861e-017 0
3.46945e-018 6.59195e-017 0
-1.00614e-016 -4.16334e-017 0
-4.16334e-017 1.73472e-016 0
-9.71445e-017 -3.1225e-017 0
6.245e-017 8.67362e-017 0
7.28584e-017 -1.73472e-017 0
-2.08167e-017 -1.14492e-016 0
-2.77556e-017 5.20417e-017 0
-3.46945e-018 -5.55112e-017 0
-3.46945e-018 7.63278e-017 0
-2.08167e-017 -7.63278e-017 0
3.46945e-017 -3.46945e-017 0
2.42861e-017 0 0
7.28584e-017 -1.52656e-016 0
8.32667e-017 -8.67362e-017 0
-2.77556e-017 2.28983e-016 0
1.38778e-017 1.04083e-016 0
1.45717e-016 3.46945e-017 0
1.73472e-016 6.245e-017 0
-6.245e-017 7.63278e-017 0
2.42861e-017 0 0
4.16334e-017 6.245e-017 0
-1.49186e-016 -6.245e-017 0
-1.04083e-017 5.20417e-017 0
-1.45717e-016 8.32667e-017 0
2.77556e-017 4.51028e-017 0
1.17961e-016 -2.77556e-017 0
6.93889e-018 1.59595e-016 0
-1.49186e-016 -3.81639e-017 0
-5.55112e-017 6.93889e-018 0
-1.35308e-016 2.42861e-017 0
-6.245e-017 -3.1225e-017 0
-6.93889e-017 1.00614e-016 0
-7.28584e-017 7.28584e-017 0
3.81639e-017 4.16334e-017 0
-3.46945e-018 1.42247e-016 0
1.73472e-017 4.16334e-017 0
-3.81639e-017 5.20417e-017 0
-9.36751e-017 2.22045e-016 0
-4.16334e-017 1.49186e-016 0
1.00614e-016 3.53884e-016 0
-3.1225e-017 1.07553e-016 0
1.38778e-017 9.02056e-017 0
-6.245e-017 -1.04083e-017 0
-2.32453e-016 -1.21431e-016 0
-1.56125e-016 1.73472e-017 0
-6.93889e-017 -4.85723e-017 0
-5.89806e-017 5.89806e-017 0
-1.42247e-016 2.5327e-016 0
-4.85723e-017 -3.46945e-017 0
-2.08167e-017 -4.16334e-017 0
-1.2837e-016 -6.59195e-017 0
4.85723e-017 -3.46945e-017 0
-4.85723e-017 -9.02056e-017 0
9.02056e-017 -1.59595e-016 0
1.70003e-016 -4.51028e-017 0
1.07553e-016 6.93889e-018 0
-8.67362e-017 8.32667e-017 0
-2.42861e-017 2.08167e-017 0
6.59195e-017 -3.46945e-018 0
-1.66533e-016 2.77556e-017 0
3.81639e-017 -6.245e-017 0
-5.55112e-017 1.73472e-017 0
-1.04083e-016 -2.42861e-017 0
2.08167e-016 -2.08167e-017 0
-6.93889e-018 1.70003e-016 0
-8.67362e-017 1.73472e-017 0
1.52656e-016 -5.89806e-017 0
4.85723e-017 -2.77556e-017 0
1.38778e-017 -6.59195e-017 0
9.36751e-017 -9.71445e-017 0
-4.16334e-017 -9.71445e-017 0
-1.00614e-016 5.20417e-017 0
8.67362e-017 8.32667e-017 0
5.89806e-017 -1.73472e-017 0
4.16334e-017 -8.32667e-017 0
3.46945e-018 -1.42247e-016 0
-1.00614e-016 -1.04083e-016 0
-5.20417e-017 1.17961e-016 0
-6.93889e-018 -1.38778e-017 0
1.59595e-016 6.93889e-018 0
-5.89806e-017 -4.51028e-017 0
-6.93889e-018 -9.36751e-017 0
4.85723e-017 -1.63064e-016 0
1.04083e-017 -4.85723e-017 0
-2.77556e-017 -1.04083e-016 0
5.55112e-017 -4.85723e-017 0
6.59195e-017 -1.35308e-016 0
4.51028e-017 -6.245e-017 0
4.16334e-017 -4.16334e-017 0
4.51028e-017 1.38778e-017 0
2.87964e-016 -5.55112e-017 0
1.56125e-016 3.46945e-017 0
-1.00614e-016 -8.67362e-017 0
1.73472e-017 -1.94289e-016 0
-3.81639e-017 -1.45717e-016 0
3.46945e-018 4.85723e-017 0
7.63278e-017 -1.59595e-016 0
6.93889e-017 2.77556e-017 0
1.14492e-016 6.59195e-017 0
1.17961e-016 5.89806e-017 0
9.36751e-017 3.1225e-017 0
-1.07553e-016 1.49186e-016 0
-1.11022e-016 1.249e-016 0
-3.81639e-017 1.249e-016 0
2.35922e-016 4.85723e-017 0
2.08167e-017 -2.28983e-016 0
2.42861e-017 1.07553e-016 0
7.28584e-017 -1.59595e-016 0
2.08167e-017 6.93889e-018 0
1.73472e-017 -1.14492e-016 0
1.56125e-016 0 0
6.59195e-017 -1.07553e-016 0
8.67362e-017 1.14492e-016 0
4.51028e-017 5.89806e-017 0
-4.51028e-017 -4.16334e-017 0
6.93889e-017 3.46945e-018 0
7.63278e-017 -1.38778e-017 0
7.63278e-017 -4.85723e-017 0
-2.77556e-017 -3.46945e-018 0
2.42861e-017 -1.97758e-016 0
1.11022e-016 -5.55112e-017 0
-1.45717e-016 7.63278e-017 0
-1.70003e-016 -8.67362e-017 0
3.1225e-017 -1.45717e-016 0
3.46945e-018 -9.36751e-017 0
8.32667e-017 -6.59195e-017 0
-5.20417e-017 2.77556e-017 0
-6.93889e-018 3.1225e-017 0
-7.97973e-017 1.38778e-017 0
5.89806e-017 9.02056e-017 0
-2.42861e-017 2.18575e-016 0
-6.93889e-018 1.04083e-016 0
1.21431e-016 -4.16334e-017 0
1.38778e-016 1.249e-016 0
1.56125e-016 5.55112e-017 0
8.67362e-017 3.29597e-016 0
1.80411e-016 7.63278e-017 0
1.56125e-016 2.18575e-016 0
3.46945e-018 1.59595e-016 0
1.49186e-016 4.51028e-017 0
1.83881e-016 8.32667e-017 0
1.31839e-016 -8.32667e-017 0
-7.97973e-017 -4.16334e-017 0
3.46945e-018 -6.93889e-018 0
9.02056e-017 -1.38778e-016 0
1.04083e-017 4.51028e-017 0
1.66533e-016 5.89806e-017 0
-6.93889e-018 2.77556e-017 0
1.04083e-017 -4.16334e-017 0
-5.20417e-017 7.97973e-017 0
-4.51028e-017 0 0
2.42861e-017 3.46945e-017 0
-5.20417e-017 5.89806e-017 0
2.18575e-016 -1.17961e-016 0
2.5327e-016 4.85723e-017 0
2.42861e-017 -1.21431e-016 0
1.14492e-016 6.245e-017 0
-1.52656e-016 -1.73472e-017 0
9.36751e-017 8.67362e-017 0
1.21431e-016 -5.55112e-017 0
-4.16334e-017 6.245e-017 0
-1.21431e-016 -1.14492e-016 0
1.04083e-017 -4.85723e-017 0
-3.46945e-018 4.16334e-017 0
-1.73472e-017 2.08167e-017 0
-3.81639e-017 6.245e-017 0
1.2837e-016 6.93889e-018 0
3.81639e-017 -9.02056e-017 0
-2.08167e-017 6.245e-017 0
3.46945e-017 3.1225e-017 0
-6.245e-017 -1.38778e-017 0
1.249e-016 1.04083e-016 0
-9.71445e-017 1.11022e-016 0
-4.16334e-017 -6.245e-017 0
-9.02056e-017 -3.46945e-017 0
3.46945e-018 -1.94289e-016 0
1.04083e-017 -3.46945e-018 0
-2.08167e-017 -8.32667e-017 0
3.46945e-017 -1.38778e-017 0
1.35308e-016 -1.14492e-016 0
9.36751e-017 1.73472e-017 0
5.89806e-017 1.04083e-017 0
4.51028e-017 3.1225e-017 0
-5.55112e-017 -6.245e-017 0
1.38778e-017 -5.89806e-017 0
-1.04083e-017 -3.81639e-017 0
2.42861e-017 -1.38778e-017 0
3.81639e-017 6.93889e-017 0
6.59195e-017 -9.02056e-017 0
1.249e-016 4.85723e-017 0
1.56125e-016 3.1225e-017 0
4.16334e-017 -6.245e-017 0
1.38778e-016 3.46945e-017 0
1.31839e-016 9.36751e-017 0
1.63064e-016 4.51028e-017 0
1.00614e-016 1.11022e-016 0
1.31839e-016 1.11022e-016 0
1.04083e-017 7.63278e-017 0
-4.16334e-017 -1.38778e-017 0
1.97758e-016 1.97758e-016 0
2.08167e-017 2.32453e-016 0
-2.77556e-017 2.60209e-016 0
2.08167e-017 1.8735e-016 0
0 6.59195e-017 0
7.97973e-017 -1.38778e-016 0
-9.02056e-017 -6.93889e-017 0
-7.28584e-017 -1.04083e-017 0
1.52656e-016 -1.49186e-016 0
1.31839e-016 -1.83881e-016 0
1.31839e-016 -6.245e-017 0
-5.89806e-017 -2.42861e-017 0
-1.04083e-016 -2.08167e-017 0
1.14492e-016 2.42861e-017 0
6.93889e-017 8.32667e-017 0
-8.67362e-017 8.32667e-017 0
-7.97973e-017 4.16334e-017 0
5.89806e-017 1.31839e-016 0
-3.1225e-017 -1.56125e-016 0
1.07553e-016 -2.39392e-016 0
2.42861e-017 -1.2837e-016 0
-8.32667e-017 -1.66533e-016 0
-1.73472e-017 -1.00614e-016 0
-1.56125e-016 -1.76942e-016 0
-3.1225e-017 -4.51028e-017 0
1.04083e-016 -3.1225e-017 0
-3.1225e-017 3.46945e-018 0
7.28584e-017 -4.85723e-017 0
4.16334e-017 4.51028e-017 0
-1.73472e-017 -1.38778e-017 0
1.07553e-016 -1.35308e-016 0
1.14492e-016 -1.31839e-016 0
1.04083e-016 -7.63278e-017 0
6.93889e-018 0 0
-1.04083e-017 2.08167e-017 0
1.04083e-017 6.93889e-018 0
8.32667e-017 6.93889e-018 0
4.16334e-017 3.81639e-017 0
-4.16334e-017 1.42247e-016 0
6.245e-017 3.81639e-017 0
-8.67362e-017 -9.71445e-017 0
-2.42861e-017 -7.97973e-017 0
4.51028e-017 8.32667e-017 0
1.00614e-016 1.04083e-017 0
-1.04083e-016 -7.63278e-017 0
-6.59195e-017 -8.67362e-017 0
-7.63278e-017 -7.28584e-017 0
-5.89806e-017 3.1225e-017 0
2.77556e-017 -3.81639e-017 0
-3.46945e-018 1.04083e-017 0
3.81639e-017 -1.52656e-016 0
9.36751e-017 -4.16334e-017 0
-1.63064e-016 5.55112e-017 0
6.93889e-018 -2.15106e-016 0
7.63278e-017 -4.16334e-017 0
9.36751e-017 -2.5327e-016 0
-3.1225e-017 -1.00614e-016 0
8.32667e-017 6.93889e-018 0
-2.77556e-017 1.04083e-017 0
7.28584e-017 4.51028e-017 0
3.46945e-017 -1.07553e-016 0
1.04083e-017 -1.04083e-017 0
2.42861e-017 -6.245e-017 0
1.49186e-016 6.59195e-017 0
6.93889e-018 -3.81639e-017 0
-1.14492e-016 -2.77556e-017 0
-1.73472e-017 1.07553e-016 0
-8.67362e-017 1.73472e-017 0
-4.16334e-017 2.08167e-017 0
1.04083e-017 1.38778e-017 0
1.04083e-016 -6.93889e-018 0
-2.08167e-017 1.249e-016 0
-3.46945e-018 -6.93889e-017 0
-1.2837e-016 3.81639e-017 0
-9.02056e-017 -6.93889e-018 0
3.81639e-017 -1.04083e-016 0
1.73472e-017 -6.93889e-018 0
6.59195e-017 6.93889e-017 0
9.02056e-017 5.89806e-017 0
3.1225e-017 -3.46945e-018 0
3.46945e-017 1.38778e-017 0
9.36751e-017 2.08167e-017 0
5.55112e-017 -7.97973e-017 0
-2.77556e-017 3.1225e-017 0
-4.51028e-017 2.08167e-017 0
-2.77556e-017 7.63278e-017 0
3.1225e-017 0 0
-2.77556e-017 1.8735e-016 0
4.16334e-017 2.11636e-016 0
5.89806e-017 8.67362e-017 0
0 8.32667e-017 0
1.14492e-016 1.00614e-016 0
7.28584e-017 6.245e-017 0
3.1225e-017 1.17961e-016 0
1.38778e-016 0 0
3.81639e-017 -7.28584e-017 0
-3.81639e-017 1.59595e-016 0
3.46945e-017 7.97973e-017 0
6.59195e-017 1.14492e-016 0
1.42247e-016 4.85723e-017 0
-1.31839e-016 5.55112e-017 0
5.55112e-017 -5.20417e-017 0
6.245e-017 1.249e-016 0
9.71445e-017 -4.51028e-017 0
-6.59195e-017 1.07553e-016 0
-1.11022e-016 4.16334e-017 0
-1.45717e-016 1.42247e-016 0
-2.08167e-017 -4.16334e-017 0
-3.46945e-017 -6.93889e-018 0
1.59595e-016 1.38778e-016 0
1.07553e-016 2.15106e-016 0
-1.31839e-016 1.56125e-016 0
8.32667e-017 -8.32667e-017 0
1.56125e-016 -3.1225e-017 0
5.55112e-017 -2.77556e-017 0
1.38778e-016 2.77556e-017 0
-7.97973e-017 -2.42861e-017 0
4.85723e-017 1.17961e-016 0
1.73472e-017 2.67147e-016 0
-1.45717e-016 7.63278e-017 0
-4.16334e-017 7.97973e-017 0
1.04083e-017 -2.42861e-017 0
-7.97973e-017 -2.22045e-016 0
1.73472e-017 -1.21431e-016 0
-1.31839e-016 0 0
-3.1225e-017 -2.77556e-017 0
0 -4.16334e-017 0
-7.97973e-017 -1.00614e-016 0
1.66533e-016 8.32667e-017 0
2.60209e-016 -3.46945e-018 0
3.1225e-017 1.38778e-017 0
6.93889e-017 -1.73472e-017 0
9.36751e-017 3.81639e-017 0
7.28584e-017 -1.04083e-016 0
-8.32667e-017 3.46945e-017 0
-2.42861e-017 -3.1225e-017 0
3.81639e-017 -3.46945e-017 0