# vtk DataFile Version 4.0
SiwiRVisFile
ASCII
DATASET STRUCTURED_POINTS
DIMENSIONS 50 50 1
ORIGIN 0 0 0
SPACING 1 1 1
POINT_DATA 2500

SCALARS flags double 1
LOOKUP_TABLE default
1
1
1
1
1
1
1
1
1
1
1
1
1
1
1
1
1
1
1
1
1
1
1
1
1
1
1
1
1
1
1
1
1
1
1
1
1
1
1
1
1
1
1
1
1
1
1
1
1
1
1
1
1
1
1
1
1
1
1
1
1
1
1
1
1
1
1
1
1
1
1
1
1
1
1
1
1
1
1
1
1
1
1
1
1
1
1
1
1
1
1
1
1
1
1
1
1
1
1
1
1
1
1
1
1
1
1
1
1
1
1
1
1
1
1
1
1
1
1
1
1
1
1
1
1
1
1
1
1
1
1
1
1
1
1
1
1
1
1
1
1
1
1
1
1
1
1
1
1
1
1
1
1
1
1
1
1
1
1
1
1
1
1
1
1
1
1
1
1
1
1
1
1
1
1
1
1
1
1
1
1
1
1
1
1
1
1
1
1
1
1
1
1
1
1
1
1
1
1
1
1
1
1
1
1
1
1
1
1
1
1
1
1
1
1
1
1
1
1
1
1
1
1
1
1
1
1
1
1
1
1
1
1
1
1
1
1
1
1
1
1
1
1
1
1
1
1
1
1
1
1
1
1
1
1
1
1
1
1
1
1
1
1
1
1
1
1
1
1
1
1
1
1
1
1
1
1
1
1
1
1
1
1
1
1
1
1
1
1
1
1
1
1
1
1
1
1
1
1
1
1
1
1
1
1
1
1
1
1
1
1
1
1
1
1
1
1
1
1
1
1
1
1
1
1
1
1
1
1
1
1
1
1
1
1
1
1
1
1
1
1
1
1
1
1
1
1
1
1
1
1
1
1
1
1
1
1
1
1
1
1
1
1
1
1
1
1
1
1
1
1
1
1
1
1
1
1
1
1
1
1
1
1
1
1
1
1
1
1
1
1
1
1
1
1
1
1
1
1
1
1
1
1
1
1
1
1
1
1
1
1
1
1
1
1
1
1
1
1
1
1
1
1
1
1
1
1
1
1
1
1
1
1
1
1
1
1
1
1
1
1
1
1
1
1
1
1
1
1
1
1
1
1
1
1
1
1
1
1
1
1
1
1
1
1
1
1
1
1
1
1
1
1
1
1
1
1
1
1
1
1
1
1
1
1
1
1
1
1
1
1
1
1
1
1
1
1
1
1
1
1
1
1
1
1
1
1
1
1
1
1
1
1
1
1
1
1
1
1
1
1
1
1
1
1
1
1
1
1
1
1
1
1
1
1
1
1
1
1
1
1
1
1
1
1
1
1
1
1
1
1
1
1
1
1
1
1
1
1
1
1
1
1
1
1
1
1
1
1
1
1
1
1
1
1
1
1
1
1
1
1
1
1
1
1
1
1
1
1
1
1
1
1
1
1
1
1
1
1
1
1
1
1
1
1
1
1
1
1
1
1
1
1
1
1
1
1
1
1
1
1
1
1
1
1
1
1
1
1
1
1
1
1
1
1
1
1
1
1
1
1
1
1
1
1
1
1
1
1
1
1
1
1
1
1
1
1
1
1
1
1
1
1
1
1
1
1
1
1
1
1
1
1
1
1
1
1
1
1
1
1
1
1
1
1
1
1
1
1
1
1
1
1
1
1
1
1
1
1
1
1
1
1
1
1
1
1
1
1
1
1
1
1
1
1
1
1
1
1
1
1
1
1
1
1
1
1
1
1
1
1
1
1
1
1
1
1
1
1
1
1
1
1
1
1
1
1
1
1
1
1
1
1
1
1
1
1
1
1
1
1
1
1
1
1
1
1
1
1
1
1
1
1
1
1
1
1
1
1
1
1
1
1
1
1
1
1
1
1
1
1
1
1
1
1
1
1
1
1
1
1
1
1
1
1
1
1
1
1
1
1
1
1
1
1
1
1
1
1
1
1
1
1
1
1
1
1
1
1
1
1
1
1
1
1
1
1
1
1
1
1
1
1
1
1
1
1
1
1
1
1
1
1
1
1
1
1
1
1
1
1
1
1
1
1
1
1
1
1
1
1
1
1
1
1
1
1
1
1
1
1
1
1
1
1
1
1
1
1
1
1
1
1
1
1
1
1
1
1
1
1
1
1
1
1
1
1
1
1
1
1
1
1
1
1
1
1
1
1
1
1
1
1
1
1
1
1
1
1
1
1
1
1
1
1
1
1
1
1
1
1
1
1
1
1
1
1
1
1
1
1
1
1
1
1
1
1
1
1
1
1
1
1
1
1
1
1
1
1
1
1
1
1
1
1
1
1
1
1
1
1
1
1
1
1
1
1
1
1
1
1
1
1
1
1
1
1
1
1
1
1
1
1
1
1
1
1
1
1
1
1
1
1
1
1
1
1
1
1
1
1
1
1
1
1
1
1
1
1
1
1
1
1
1
1
1
1
1
1
1
1
1
1
1
1
1
1
1
1
1
1
1
1
1
1
1
1
1
1
1
1
1
1
1
1
1
1
1
1
1
1
1
1
1
1
1
1
1
1
1
1
1
1
1
1
1
1
1
1
1
1
1
1
1
1
1
1
1
1
1
1
1
1
1
1
1
1
1
1
1
1
1
1
1
1
1
1
1
1
1
1
1
1
1
1
1
1
1
1
1
1
1
1
1
1
1
1
1
1
1
1
1
1
1
1
1
1
1
1
1
1
1
1
1
1
1
1
1
1
1
1
1
1
1
1
1
1
1
1
1
1
1
1
1
1
1
1
1
1
1
1
1
1
1
1
1
1
1
1
1
1
1
1
1
1
1
1
1
1
1
1
1
1
1
1
1
1
1
1
1
1
1
1
1
1
1
1
1
1
1
1
1
1
1
1
1
1
1
1
1
1
1
1
1
1
1
1
1
1
1
1
1
1
1
1
1
1
1
1
1
1
1
1
1
1
1
1
1
1
1
1
1
1
1
1
1
1
1
1
1
1
1
1
1
1
1
1
1
1
1
1
1
1
1
1
1
1
1
1
1
1
1
1
1
1
1
1
1
1
1
1
1
1
1
1
1
1
1
1
1
1
1
1
1
1
1
1
1
1
1
1
1
1
1
1
1
1
1
1
1
1
1
1
1
1
1
1
1
1
1
1
1
1
1
1
1
1
1
1
1
1
1
1
1
1
1
1
1
1
1
1
1
1
1
1
1
1
1
1
1
1
1
1
1
1
1
1
1
1
1
1
1
1
1
1
1
1
1
1
1
1
1
1
1
1
1
1
1
1
1
1
1
1
1
1
1
1
1
1
1
1
1
1
1
1
1
1
1
1
1
1
1
1
1
1
1
1
1
1
1
1
1
1
1
1
1
1
1
1
1
1
1
1
1
1
1
1
1
1
1
1
1
1
1
1
1
1
1
1
1
1
1
1
1
1
1
1
1
1
1
1
1
1
1
1
1
1
1
1
1
1
1
1
1
1
1
1
1
1
1
1
1
1
1
1
1
1
1
1
1
1
1
1
1
1
1
1
1
1
1
1
1
1
1
1
1
1
1
1
1
1
1
1
1
1
1
1
1
1
1
1
1
1
1
1
1
1
1
1
1
1
1
1
1
1
1
1
1
1
1
1
1
1
1
1
1
1
1
1
1
1
1
1
1
1
1
1
1
1
1
1
1
1
1
1
1
1
1
1
1
1
1
1
1
1
1
1
1
1
1
1
1
1
1
1
1
1
1
1
1
1
1
1
1
1
1
1
1
1
1
1
1
1
1
1
1
1
1
1
1
1
1
1
1
1
1
1
1
1
1
1
1
1
1
1
1
1
1
1
1
1
1
1
1
1
1
1
1
1
1
1
1
1
1
1
1
1
1
1
1
1
1
1
1
1
1
1
1
1
1
1
1
1
1
1
1
1
1
1
1
1
1
1
1
1
1
1
1
1
1
1
1
1
1
1
1
1
1
1
1
1
1
1
1
1
1
1
1
1
1
1
1
1
1
1
1
1
1
1
1
1
1
1
1
1
1
1
1
1
1
1
1
1
1
1
1
1
1
1
1
1
1
1
1
1
1
1
1
1
1
1
1
1
1
1
1
1
1
1
1
1
1
1
1
1
1
1
1
1
1
1
1
1
1
1
1
1
1
1
1
1
1
1
1
1
1
1
1
1
1
1
1
1
1
1
1
1
1
1
1
1
1
1
1
1
1
1
1
1
1
1
1
1
1
1
1
1
1
1
1
1
1
1
1
1
1
1
1
1
1
1
1
1
1
1
1
1
1
1
1
1
1
1
1
1
1
1
1
1
1
1
1
1
1
1
1
1
1
1
1
1
1
1
1
1
1
1
1
1
1
1
1
1
1
1
1
1
1
1
1
1
1
1
1
1
1
1
1
1
1
1
1
1
1
1
1
1
1
1
1
1
1
1
1
1
1
1
1
1
1
1
1
1
1
1
1
1
1
1
1
1
1
1
1
1
1
1
1
1
1
1
1
1
1
1
1
1
1
1
1
1
1
1
1
1
1
1
1
1
1
1
1
1
1
1
1
1
1
1
1
1
1
1
1
1
1
1
1
1
1
1
1
1
1
1
1
1
1
1
1
1
1
1
1
1
1
1
1
1
1
1
1
1
1
1
1
1
1
1
1
1
1
1
1
1
1
1
1
1
1
1
1
1
1
1
1
1
1
1
1
1
1
1
1
1
1
1
1
1
1
1
1
1
1
1
1
1
1
1
1
1
1
1
1
1
1
1
1
1
1
1
1
1
1
1
1
1
1
1
1
1
1
1
1
1
1
1
1
1
1
1
1
1
1
1
1
1
1
1
1
1
1
1
1
1
1
1
1
1
1
1
1
1
1
1
1
1
1
1
1
1
1
1
1
1
1
1
1
1
1
1
1
1
1
1
1
1
1
1
1
1
1
1
1
1
1
1
1
1
1
1
1
1
1
1
1
1
1
1
1
1
1
1
1
1
1
1
1
1
1
1
1
1
1
1
1
1
1
1
1
1
1
1
1
1
1
1
1
1
1
1
1
1
1
1
1
1
1
1
1
1
1
1
1
1
1
1
1
1
1
1
1
1
1
1
1
1
1
1
1
1
1
1
1
1
1
1
1
1
1
1
1
1
1
1
1
1
1
1
1
1
1
1
1
1
1
1
1
1
1
1
1
1
1
1
1
1
1
1
1
1
1
1
1
1
1
1
1
1
1
1
1
1
1
1
1
1
1
1
1
1
1
1
1
1
1
1
1
1
1
1
1
1
1
1
1
1
1
1
1
1
1
1
1
1
1
1
1
1
1
1
1
1
1
1
1
1
1
1
1
1
1
1
1
1
1
1
1
1
1
1
1
1
1
1
1
1
1
1
1
1
1
1
1
1
1
1
1
1
1
1
1
1
1
1
1
1
1
1
1
1
1
1
1
1
1
1
1
1
1
1
1
1
1
1
1
1
1
1
1
1
1
1
1
1
1
1
1
1
1
1
1
1
1
1
1
1
1
1
1
1
1
1
1
1
1
1
1
1
1
1
1
1
1
1
1
1
1
1
1
1
1
1
1
1
1
1
1
1
1
1
1
1
1
1
1
1
1
1
1
1
1
1
1
1
1
1
1
1
1
1
1
1
1
1
1
1
1
1
1
1
1
1
1
1
1
1
1
1
1
1
1
1
1
1
1
1
1
1
1
1
1
1
1
1
1
1
1
1
1
1
1
1
1
1
1
1
1
1
1
1
1
1
1
1
1
1
1
1
1
1
1
1
1
1
1
1
1
1
1

SCALARS density double 1
LOOKUP_TABLE default
1
1
1
1
1
1
1
1
1
1
1
1
1
1
1
1
1
1
1
1
1
1
1
1
1
1
1
1
1
1
1
1
1
1
1
1
1
1
1
1
1
1
1
1
1
1
1
1
1
1
1
1
1
1
1
1
1
1
1
1
1
1
1
1
1
1
1
1
1
1
1
1
1
1
1
1
1
1
1
1
1
1
1
1
1
1
1
1
1
1
1
1
1
1
1
1
1
1
1
1
1
1
1
1
1
1
1
1
1
1
1
1
1
1
1
1
1
1
1
1
1
1
1
1
1
1
1
1
1
1
1
1
1
1
1
1
1
1
1
1
1
1
1
1
1
1
1
1
1
1
1
1
1
1
1
1
1
1
1
1
1
1
1
1
1
1
1
1
1
1
1
1
1
1
1
1
1
1
1
1
1
1
1
1
1
1
1
1
1
1
1
1
1
1
1
1
1
1
1
1
1
1
1
1
1
1
1
1
1
1
1
1
1
1
1
1
1
1
1
1
1
1
1
1
1
1
1
1
1
1
1
1
1
1
1
1
1
1
1
1
1
1
1
1
1
1
1
1
1
1
1
1
1
1
1
1
1
1
1
1
1
1
1
1
1
1
1
1
1
1
1
1
1
1
1
1
1
1
1
1
1
1
1
1
1
1
1
1
1
1
1
1
1
1
1
1
1
1
1
1
1
1
1
1
1
1
1
1
1
1
1
1
1
1
1
1
1
1
1
1
1
1
1
1
1
1
1
1
1
1
1
1
1
1
1
1
1
1
1
1
1
1
1
1
1
1
1
1
1
1
1
1
1
1
1
1
1
1
1
1
1
1
1
1
1
1
1
1
1
1
1
1
1
1
1
1
1
1
1
1
1
1
1
1
1
1
1
1
1
1
1
1
1
1
1
1
1
1
1
1
1
1
1
1
1
1
1
1
1
1
1
1
1
1
1
1
1
1
1
1
1
1
1
1
1
1
1
1
1
1
1
1
1
1
1
1
1
1
1
1
1
1
1
1
1
1
1
1
1
1
1
1
1
1
1
1
1
1
1
1
1
1
1
1
1
1
1
1
1
1
1
1
1
1
1
1
1
1
1
1
1
1
1
1
1
1
1
1
1
1
1
1
1
1
1
1
1
1
1
1
1
1
1
1
1
1
1
1
1
1
1
1
1
1
1
1
1
1
1
1
1
1
1
1
1
1
1
1
1
1
1
1
1
1
1
1
1
1
1
1
1
1
1
1
1
1
1
1
1
1
1
1
1
1
1
1
1
1
1
1
1
1
1
1
1
1
1
1
1
1
1
1
1
1
1
1
1
1
1
1
1
1
1
1
1
1
1
1
1
1
1
1
1
1
1
1
1
1
1
1
1
1
1
1
1
1
1
1
1
1
1
1
1
1
1
1
1
1
1
1
1
1
1
1
1
1
1
1
1
1
1
1
1
1
1
1
1
1
1
1
1
1
1
1
1
1
1
1
1
1
1
1
1
1
1
1
1
1
1
1
1
1
1
1
1
1
1
1
1
1
1
1
1
1
1
1
1
1
1
1
1
1
1
1
1
1
1
1
1
1
1
1
1
1
1
1
1
1
1
1
1
1
1
1
1
1
1
1
1
1
1
1
1
1
1
1
1
1
1
1
1
1
1
1
1
1
1
1
1
1
1
1
1
1
1
1
1
1
1
1
1
1
1
1
1
1
1
1
1
1
1
1
1
1
1
1
1
1
1
1
1
1
1
1
1
1
1
1
1
1
1
1
1
1
1
1
1
1
1
1
1
1
1
1
1
1
1
1
1
1
1
1
1
1
1
1
1
1
1
1
1
1
1
1
1
1
1
1
1
1
1
1
1
1
1
1
1
1
1
1
1
1
1
1
1
1
1
1
1
1
1
1
1
1
1
1
1
1
1
1
1
1
1
1
1
1
1
1
1
1
1
1
1
1
1
1
1
1
1
1
1
1
1
1
1
1
1
1
1
1
1
1
1
1
1
1
1
1
1
1
1
1
1
1
1
1
1
1
1
1
1
1
1
1
1
1
1
1
1
1
1
1
1
1
1
1
1
1
1
1
1
1
1
1
1
1
1
1
1
1
1
1
1
1
1
1
1
1
1
1
1
1
1
1
1
1
1
1
1
1
1
1
1
1
1
1
1
1
1
1
1
1
1
1
1
1
1
1
1
1
1
1
1
1
1
1
1
1
1
1
1
1
1
1
1
1
1
1
1
1
1
1
1
1
1
1
1
1
1
1
1
0.999999
0.999999
0.999999
0.999999
0.999999
0.999999
0.999999
0.999999
1
0.999997
0.999999
0.999999
0.999999
0.999999
0.999999
0.999999
0.999999
0.999999
1
1
1
1
1
1
1
1
1
1
1
0.999999
0.999999
1
0.999999
1
1
1
1
1
1
1
0.999999
0.999999
0.999999
0.999998
0.999999
0.999999
0.999999
0.999999
0.999999
0.999999
1
1
1
1
1
1
1
1
1
1
1.00001
1
1
1
0.999999
0.999999
0.999999
0.999999
0.999998
0.999999
0.999999
0.999999
1
0.999999
1
1
0.999999
1
1
1
0.999999
1
1
1
0.999998
0.999996
0.999999
1
0.999997
0.999995
0.999999
1
0.999997
0.999998
1
1
1
1
1
1
1
1
1
1
1
1
1
0.999996
1
1
0.99999
1
1
1
1
1
1
1
1
1
0.999999
0.999996
1
0.999997
0.999984
1
1.00001
0.999989
0.999991
1.00001
1.00001
1
1.00001
1
0.999995
0.999994
1
0.999991
0.999988
1.00001
1.00001
0.999992
1
1.00002
1.00001
1
1.00001
1
1
1
0.999999
0.999998
0.999998
0.999997
0.999997
0.999998
0.999998
0.999995
0.999999
1.00001
0.999998
1
0.999998
0.999998
0.999998
0.999999
0.999999
1
1
1
1.00001
0.99999
0.999979
1.00003
1.00001
0.999944
1
1.00003
0.999971
0.999975
1.00002
1.00001
0.99999
0.999995
1.00001
1.00001
0.99999
0.999979
1.00003
1.00003
0.999968
1
1.00006
0.999993
0.999968
1.00002
1.00001
0.999983
0.999995
0.999995
0.999992
0.999996
0.999995
0.999997
0.999998
0.999998
0.999996
1.00002
0.999993
0.999986
1
0.999988
0.999998
0.999994
0.999992
0.999997
0.999986
0.999998
1.00001
0.999958
1
1.00008
0.999954
0.999924
1.00011
1.00005
0.999894
1.00003
1.00007
0.999947
0.999963
1.00003
0.999992
0.999981
1.00002
1.00001
0.999973
1.00004
1.00005
0.999927
0.999972
1.0001
0.999947
0.999883
1.00007
1.00004
0.999919
1
1.00004
0.999995
1.00001
1.00002
1.00001
1.00001
1.00001
1.00001
1.00001
1.00002
1
0.999985
1.00001
0.999991
1
1
0.999992
1.00002
0.999993
0.999947
1.00007
1.00005
0.999823
0.999999
1.00023
0.999905
0.999831
1.00021
1.00007
0.999832
1.00006
1.00011
0.999923
0.999956
1.00003
1.00001
0.999989
0.999968
1.00004
1.00008
0.999894
0.999933
1.00017
0.999934
0.999792
1.00017
1.0001
0.999784
1.00001
1.00018
0.999951
0.999941
1.00006
1.00001
0.999984
1.00001
0.999996
0.999994
1.00002
0.999958
1.00002
0.999979
0.999965
1
0.999999
1.00004
0.999973
1
1.00014
0.999939
0.999814
1.00026
1.00017
0.99966
0.999969
1.00035
0.999811
0.999741
1.00027
1.00005
0.999765
1.00009
1.00012
0.999913
0.999978
1.00004
0.999962
1.00002
1.00009
0.999887
0.999899
1.00024
0.999973
0.999732
1.00025
1.0002
0.999664
1.00002
1.00032
0.999824
0.999744
1.00017
1.00004
0.999848
0.999986
1.00001
0.999955
0.999998
1.00001
1.00002
1.00004
0.999925
0.999941
1
0.999929
1.00006
1.00007
0.999768
1
1.0004
0.999824
0.999619
1.00036
1.00022
0.999559
0.999997
1.00039
0.999751
0.9997
1.00033
1.00003
0.999749
1.00011
1.00012
0.99991
0.999946
1.00005
1.0001
0.999893
0.999881
1.00025
0.999993
0.999664
1.00027
1.00026
0.999619
0.999971
1.00042
0.999792
0.999646
1.00036
1.00017
0.999621
1.00001
1.00023
0.99994
0.999951
1.00008
0.999983
1.0001
1.00006
0.999775
0.999796
0.999977
0.999845
0.999755
1.00028
1.00015
0.999425
0.999955
1.00051
0.99971
0.999623
1.00037
1.00013
0.999606
1.00004
1.00045
0.999801
0.999706
1.00034
1.00003
0.999751
1.00011
1.00008
0.999948
1.00005
0.999927
0.999874
1.00024
0.999995
0.99965
1.00025
1.00022
0.999569
0.999928
1.00039
0.9999
0.999645
1.00036
1.00029
0.999536
1.00005
1.00054
0.99985
0.999742
1.00024
1.00014
1.00001
1.00021
1.00021
0.99976
0.999485
0.999765
1.00014
0.999585
0.999482
1.00052
1.0002
0.999451
1.0001
1.00039
0.999694
0.999787
1.00036
1.00012
0.999743
0.999936
1.00043
0.99982
0.999684
1.00034
1.00001
0.999759
1.00012
1.00013
0.999869
0.999863
1.00023
1.00003
0.999655
1.00028
1.00022
0.999605
1.00003
1.00025
0.999904
0.99964
1.00018
1.00028
0.999621
0.999874
1.00047
0.999773
0.999503
1.00046
1.00037
0.999857
1.00025
1.00046
1.00027
0.999715
0.99947
0.99899
0.99969
1.00029
0.999429
0.999537
1.00045
1.00002
0.999667
1.00019
1.00034
0.999751
0.999844
1.00008
1.00008
0.999792
0.999898
1.00041
0.999818
0.999685
1.00035
0.999982
0.999834
1.00004
0.999951
1.00017
1.00006
0.999644
1.00027
1.00023
0.999616
1.00004
1.0002
0.999926
0.999912
1.00011
1.00022
0.999667
0.999794
1.00029
0.999967
0.999577
1.00042
1.00048
0.999699
1.00031
1.00092
1.00046
1.00026
0.998435
0.999817
0.999102
0.998286
0.999182
0.999756
0.999155
0.999576
1.00016
0.999942
0.999734
0.999918
1.0002
0.999775
0.999979
1.00006
1.00005
0.999824
0.999919
1.00048
0.999782
0.999758
1.00033
0.999959
0.999804
1.00019
1.00007
0.999655
1.00018
1.00027
0.999543
1.00001
1.00017
0.99997
0.999935
0.999998
1.00023
0.999834
1.00008
1.00028
1.00005
0.999839
1.00038
1.00074
1.00018
1.00074
1.0015
1.00069
1.00018
1.00128
0.998386
0.998831
0.998324
0.998329
0.997953
0.99866
0.999196
0.999079
0.999415
0.999838
1.00003
0.999867
1.00011
1.00037
0.999703
1
1.00019
1.00002
0.999795
0.999906
1.00043
0.999712
0.999833
1.00027
1.00006
0.999955
0.999717
1.00011
1.00034
0.999621
1.00002
1.00021
1.00002
0.99982
0.99997
1.00029
0.999672
0.99983
1.00012
0.999913
1.00005
1.00052
1.00078
1.0006
1.0011
1.00177
1.00131
1.00134
1.00102
1.00122
0.999012
0.997195
0.996614
0.998678
0.997764
0.997408
0.998051
0.998792
0.998855
0.999465
0.999936
0.999976
0.999446
1.00013
1.0005
0.999562
1.00004
1.00001
1.00009
0.999738
1.00001
1.00034
0.999702
0.999902
1.00022
0.999775
1.00006
1.00035
0.999712
0.999893
1.00027
0.999959
0.999978
0.999898
1.00042
0.999558
0.999753
1.0005
0.999987
0.999964
1.00044
1.00094
1.00089
1.00154
1.00218
1.0017
1.00092
1.00262
1.00216
1.00071
0.996102
0.997236
0.997511
0.996903
0.996587
0.996959
0.996876
0.99752
0.998439
0.997775
0.999175
0.999781
1.00003
0.999377
0.999932
1.00043
0.999646
1.0001
1.00008
1.00017
0.999706
1.0001
1.00033
0.999727
0.999846
1.00014
1.00031
0.999707
0.999794
1.00028
0.999909
0.99988
0.999826
1.00037
0.99965
0.999924
1.00062
0.999999
1.00008
1.00067
1.00192
1.00123
1.00199
1.00261
1.00238
1.00249
1.00258
1.00169
1.00185
1.00315
0.995657
0.998681
0.997437
0.996265
0.997622
0.998196
0.996391
0.99616
0.997574
0.998499
0.998024
0.999329
0.999728
1.00018
0.999512
1.00024
1.00035
0.99974
0.999815
1.00018
1.00008
0.999636
1.00017
1.00023
0.999824
1.00018
0.999795
0.999731
1.00035
1.00004
0.999793
1.00012
1.00029
0.999751
0.999643
1.00047
0.999821
1.00001
1.00053
1.00164
1.00106
1.00177
1.00306
1.00288
1.00131
1.00165
1.00309
1.00195
1.00085
1.00322
0.998305
0.998295
0.996229
0.998951
0.998287
0.997258
0.997495
0.997506
0.996244
0.997531
0.997814
0.997832
0.999426
0.999674
1.00013
0.999234
1.00005
1.00039
0.999776
0.999814
1.00022
1.00004
0.999592
1.00018
1.00016
0.999852
0.999755
1.00041
1.0001
0.999742
1.00006
1.00027
0.999692
0.999794
1.00069
0.999869
1.00011
1.00049
1.00168
1.00166
1.00176
1.00323
1.00202
1.00186
1.00244
1.00149
1.00072
1.00326
1.0019
1.00122
0.997287
0.995598
0.997315
0.999229
0.997084
0.995615
0.998929
0.996989
0.996166
0.995697
0.99757
0.998009
0.997728
0.999214
0.999792
1.00024
0.999511
1.00009
1.00036
0.999862
0.999879
1.00041
0.999962
0.9997
1.00006
0.999934
1.00029
1.00015
0.999533
0.999959
1.0002
0.999729
0.999766
1.00043
0.999836
1.00001
1.00058
1.00183
1.00157
1.00192
1.00373
1.00335
1.0027
1.00111
1.00389
1.00284
1.00114
1.00225
1.00423
1.00285
0.996073
0.997864
0.997674
0.99606
0.996836
0.999287
0.997414
0.997367
0.997829
0.997884
0.995941
0.997758
0.998474
0.998418
0.999644
1.00003
1.00012
0.999539
1
1.00014
0.999742
0.999838
1.00045
0.999934
0.999865
1.00013
1.00011
0.999508
1.00002
1.00038
0.999973
0.999878
1.00042
0.999954
0.999788
1.00018
1.00126
1.00111
1.00163
1.00345
1.00199
1.00177
1.00245
1.00253
1.00052
1.00237
1.00412
1.00203
1.00174
1.00372
0.996147
0.997704
0.99616
0.996321
0.997475
0.997908
0.996835
0.997087
0.998262
0.996499
0.99622
0.99566
0.99785
0.998238
0.998391
0.999226
1.0002
1.0001
0.999761
0.999974
1.00029
0.999576
0.999919
1.00025
1.00001
1
0.999736
0.999995
1.00056
0.999828
0.999827
1.00015
0.999984
0.999636
1.00053
1.00131
1.00134
1.00167
1.00386
1.0036
1.00323
1.00184
1.00259
1.00294
1.00228
1.00208
1.00333
1.00378
1.00259
1.00344
0.999931
0.996087
0.996189
0.99942
0.998052
0.993948
0.998949
0.998651
0.996352
0.997293
0.997726
0.99727
0.995611
0.998184
0.999272
0.999144
0.999566
1.00026
1.00026
0.99977
1.00023
1.00029
0.999632
0.999955
1.00005
0.999947
1.00001
1.00043
0.999803
0.999533
1.00015
0.9999
0.999658
1.00016
1.00066
1.00049
1.0013
1.00388
1.00276
1.00203
1.00269
1.00376
1.00155
1.0006
1.00632
1.0027
1.00082
1.00357
1.00452
1.0004
0.995351
0.998085
0.997328
0.997122
0.995402
0.996782
0.997315
0.996681
0.997018
0.9971
0.998004
0.996229
0.996768
0.996843
0.998303
0.999685
0.999074
0.99951
0.999978
1.00001
0.999545
1.00036
1.00016
0.999877
0.999977
1.00002
1.00014
0.999874
0.999463
1.0004
1.00024
0.999949
1.00022
1.00085
1.00018
1.00118
1.00285
1.0031
1.0036
1.00223
1.00282
1.00273
1.00333
1.00301
1.00307
1.00431
1.00381
1.00271
1.00215
1.005
0.994218
0.998342
0.997716
0.991959
0.996942
0.998515
0.996924
0.99413
0.998892
0.997954
0.995084
0.996497
0.997418
0.99639
0.996592
0.999038
1.00013
0.999819
0.999749
1.0004
0.999793
0.999666
1.00018
1.00008
1.00001
0.999994
0.999929
0.999759
1.0003
1.00046
0.999525
0.999932
1.00014
0.999749
1.00039
1.00293
1.00356
1.0026
1.00353
1.00505
1.00228
1.00047
1.00533
1.00376
1.00172
1.00281
1.00821
1.0026
1.00205
1.00594
0.999314
0.99596
0.997644
0.997858
0.999331
0.996443
0.998229
0.999252
0.997709
0.997565
0.997951
0.997828
0.997082
0.996818
0.997998
0.998166
0.999543
1.00023
0.999829
0.999927
1.00045
0.999798
0.999815
1
1.00002
0.999982
0.999991
1.00018
1.00031
0.99947
0.999721
1.00024
0.999779
1.00005
1.00156
1.00205
1.00327
1.00343
1.00238
1.00186
1.00264
1.00315
1.00112
1.0015
1.00403
1.00086
1.00219
1.00291
1.0046
1.00086
0.996311
0.991913
0.993595
0.996764
0.995602
0.99247
0.997218
0.995853
0.993983
0.995029
0.997063
0.995723
0.993952
0.995792
0.997141
0.997537
0.998308
0.9994
1.00013
0.999487
1.00008
1.00031
0.999996
0.999963
1
0.999995
1.00004
1.00003
0.999652
0.999692
1.00064
0.999998
1.0001
1.00136
1.00252
1.00281
1.00399
1.00623
1.0048
1.00274
1.00469
1.00624
1.00443
1.00257
1.00774
1.00481
1.0029
1.0065
1.00809
1.00421
0.994246
0.999632
1.00048
0.994284
0.999405
0.999787
0.997339
0.996017
1.00012
1.00074
0.997117
0.998592
1.00028
0.998103
0.997098
0.999082
1.00026
0.999844
1.00046
1.00019
0.999617
0.999986
1.00009
1.00002
1.00001
0.999987
0.999984
0.999906
0.999958
1.00047
0.999997
0.999111
0.9999
0.999849
1.00076
1.00319
1.00282
1.00018
1.00117
1.00319
0.999763
0.999382
1.00393
1.00359
1.00087
1.00075
1.0066
0.999617
1.00087
1.00654
0.992769
0.999432
0.994708
0.991809
0.995692
0.996317
0.995017
0.993993
0.997441
0.995383
0.993263
0.99475
0.995448
0.994237
0.994183
0.99668
0.998419
0.998792
0.999211
1.00027
1.00002
0.999829
0.99994
0.999979
1.00001
0.999992
1.00002
1.00005
1.00019
1.00001
0.999372
1.0004
1.00147
1.00161
1.00315
1.00632
1.00694
1.00519
1.00505
1.00651
1.00499
1.00261
1.00585
1.00562
1.00317
1.00396
1.00774
1.00543
1.00179
1.00761
1.00276
0.987538
0.996187
0.999756
0.999166
0.992803
0.999158
1.00093
0.996984
0.997847
0.99991
0.999527
0.996598
0.998154
0.999994
0.998975
0.998985
1.0008
1.00031
1.00018
1.00036
1.00017
1.00003
1.00001
0.999991
1.00001
0.99999
0.999973
0.999836
0.999546
0.999672
0.999909
0.99885
1.00054
1.00198
1.00107
1.00211
1.00383
1.00099
0.999476
1.0017
1.00366
1.00016
1.00085
1.00797
1.00203
1.00064
1.00378
1.01275
0.997167
0.992002
0.992047
0.99497
0.997045
0.995788
0.993648
0.997108
0.997215
0.995448
0.995301
0.995427
0.99481
0.995119
0.995791
0.995924
0.996649
0.998164
0.999637
0.999666
0.999401
0.999699
0.999957
0.99996
1.00004
0.99996
1.00004
0.999953
1.00003
0.999993
1.00025
1.00074
1.00052
1.00005
1.00194
1.00434
1.00527
1.00545
1.00571
1.00579
1.00433
1.00417
1.00485
1.00301
1.00226
1.00623
1.0053
1.00336
1.00465
1.00764
1.01071
0.99218
1.00213
0.999242
0.988272
0.996343
1.00007
0.996349
0.996437
0.999941
0.998531
0.994557
0.996312
0.998699
0.996315
0.996162
0.999353
1.0003
0.999043
0.999825
1.00034
1.00018
1.00009
1.00001
1.00003
0.999975
1.00002
0.999971
0.999982
0.999901
0.999793
0.999464
0.999918
1.0016
1.00023
1.00039
1.00467
1.00542
1.00192
1.00326
1.00546
1.00071
0.999715
1.00488
1.00478
0.999174
1.00398
1.01396
1.00014
0.997542
1.02004

VECTORS velocity double
-1.38778e-017 5.55112e-017 0
2.77556e-017 -6.93889e-017 0
3.46945e-017 3.46945e-017 0
-5.20417e-017 3.81639e-017 0
-2.42861e-017 -3.46945e-018 0
-2.08167e-017 2.08167e-017 0
1.07553e-016 7.63278e-017 0
1.11022e-016 1.04083e-017 0
-1.38778e-017 1.17961e-016 0
-1.2837e-016 5.55112e-017 0
-5.55112e-017 2.11636e-016 0
1.97758e-016 9.71445e-017 0
2.08167e-017 9.71445e-017 0
4.51028e-017 9.36751e-017 0
-4.85723e-017 -8.32667e-017 0
-8.32667e-017 -4.51028e-017 0
7.28584e-017 5.20417e-017 0
-1.38778e-017 -6.93889e-017 0
3.81639e-017 3.46945e-017 0
6.93889e-017 1.249e-016 0
1.73472e-017 3.46945e-017 0
-2.08167e-017 9.71445e-017 0
6.245e-017 1.45717e-016 0
1.04083e-017 8.32667e-017 0
-2.42861e-017 4.51028e-017 0
-7.63278e-017 1.17961e-016 0
5.20417e-017 1.76942e-016 0
8.32667e-017 1.66533e-016 0
6.59195e-017 1.45717e-016 0
-3.46945e-017 -1.04083e-017 0
-1.42247e-016 -4.51028e-017 0
-5.89806e-017 -6.59195e-017 0
-7.97973e-017 -2.42861e-017 0
-7.28584e-017 1.94289e-016 0
4.51028e-017 1.14492e-016 0
-8.32667e-017 1.04083e-016 0
-1.17961e-016 4.16334e-017 0
1.249e-016 5.89806e-017 0
6.93889e-017 -1.38778e-017 0
-1.8735e-016 -1.249e-016 0
-1.04083e-017 -1.38778e-016 0
3.46945e-017 -1.14492e-016 0
4.85723e-017 -7.97973e-017 0
-3.1225e-017 1.66533e-016 0
6.59195e-017 7.63278e-017 0
-1.17961e-016 1.38778e-017 0
-5.89806e-017 6.59195e-017 0
2.77556e-017 1.04083e-017 0
-1.35308e-016 7.63278e-017 0
-9.02056e-017 2.08167e-017 0
7.28584e-017 1.73472e-017 0
1.38778e-016 -3.1225e-017 0
-1.38778e-017 8.32667e-017 0
-9.71445e-017 -6.245e-017 0
1.8735e-016 -2.42861e-017 0
1.63064e-016 -6.245e-017 0
1.38778e-017 -1.11022e-016 0
-2.42861e-017 -2.77556e-016 0
1.07553e-016 7.97973e-017 0
-6.93889e-018 -7.97973e-017 0
-1.249e-016 -3.1225e-017 0
2.42861e-017 -1.70003e-016 0
-1.70003e-016 -3.46945e-018 0
4.16334e-017 -1.42247e-016 0
-4.16334e-017 9.71445e-017 0
-3.46945e-017 -6.93889e-017 0
-1.66533e-016 6.93889e-018 0
-5.55112e-017 -6.245e-017 0
3.46945e-017 -1.249e-016 0
-5.55112e-017 -6.93889e-017 0
-3.46945e-017 -1.45717e-016 0
-7.97973e-017 -1.07553e-016 0
6.93889e-017 -6.93889e-017 0
-3.1225e-017 -7.63278e-017 0
-1.249e-016 -1.42247e-016 0
-5.89806e-017 -9.71445e-017 0
0 -1.52656e-016 0
8.32667e-017 -3.81639e-017 0
1.73472e-017 0 0
-6.59195e-017 0 0
-9.71445e-017 5.89806e-017 0
-1.11022e-016 -6.93889e-018 0
-2.42861e-017 -1.42247e-016 0
-1.17961e-016 0 0
-1.52656e-016 5.20417e-017 0
6.93889e-018 8.32667e-017 0
-3.46945e-018 1.9082e-016 0
1.38778e-017 -3.46945e-017 0
-6.59195e-017 4.51028e-017 0
-2.28983e-016 3.46945e-018 0
5.89806e-017 1.70003e-016 0
-6.59195e-017 6.93889e-017 0
3.46945e-018 8.32667e-017 0
1.249e-016 -7.28584e-017 0
9.02056e-017 2.08167e-016 0
2.08167e-017 7.28584e-017 0
2.77556e-017 5.20417e-017 0
1.94289e-016 -1.04083e-016 0
-1.07553e-016 3.81639e-017 0
5.55112e-017 -9.71445e-017 0
1.14492e-016 -1.14492e-016 0
-1.73472e-017 1.38778e-017 0
-2.42861e-017 8.67362e-017 0
2.08167e-017 5.55112e-017 0
9.36751e-017 5.55112e-017 0
1.07553e-016 4.16334e-017 0
-3.46945e-018 3.1225e-017 0
-4.51028e-017 -1.249e-016 0
-4.16334e-017 1.00614e-016 0
1.14492e-016 1.04083e-017 0
1.38778e-017 -9.02056e-017 0
9.02056e-017 -8.32667e-017 0
1.38778e-016 -6.93889e-018 0
-4.16334e-017 -2.08167e-017 0
-1.52656e-016 1.04083e-017 0
6.93889e-018 1.31839e-016 0
1.38778e-017 -2.77556e-017 0
4.16334e-017 2.498e-016 0
9.02056e-017 1.45717e-016 0
-1.07553e-016 9.36751e-017 0
2.77556e-017 5.89806e-017 0
1.2837e-016 1.73472e-017 0
3.1225e-017 6.245e-017 0
1.17961e-016 1.249e-016 0
1.00614e-016 8.32667e-017 0
1.73472e-017 1.76942e-016 0
3.46945e-018 1.94289e-016 0
1.83881e-016 1.80411e-016 0
1.97758e-016 1.76942e-016 0
1.38778e-016 2.77556e-017 0
-7.97973e-017 6.245e-017 0
-1.94289e-016 -1.00614e-016 0
3.46945e-017 7.63278e-017 0
1.14492e-016 -1.04083e-017 0
-1.45717e-016 1.31839e-016 0
4.85723e-017 1.38778e-017 0
0 -2.42861e-017 0
1.07553e-016 -2.77556e-017 0
9.36751e-017 -1.14492e-016 0
-2.77556e-017 2.08167e-017 0
-3.81639e-017 1.14492e-016 0
1.73472e-017 -5.20417e-017 0
5.20417e-017 -6.245e-017 0
2.01228e-016 -6.93889e-017 0
-3.46945e-018 3.46945e-017 0
-1.04083e-017 9.02056e-017 0
-4.85723e-017 1.249e-016 0
3.46945e-018 -3.46945e-017 0
8.67362e-017 -1.73472e-017 0
1.17961e-016 -7.63278e-017 0
4.16334e-017 -1.00614e-016 0
7.28584e-017 3.46945e-018 0
9.02056e-017 1.00614e-016 0
2.08167e-017 1.83881e-016 0
-1.04083e-017 6.93889e-018 0
9.36751e-017 2.77556e-017 0
7.28584e-017 -4.16334e-017 0
7.28584e-017 -2.08167e-016 0
-1.31839e-016 1.31839e-016 0
-1.31839e-016 1.04083e-017 0
-4.85723e-017 3.46945e-017 0
-1.2837e-016 -3.46945e-017 0
1.04083e-016 -6.93889e-017 0
3.46945e-017 -1.11022e-016 0
-7.28584e-017 -1.04083e-016 0
-1.66533e-016 1.11022e-016 0
1.66533e-016 5.89806e-017 0
-4.51028e-017 -1.04083e-017 0
-6.93889e-018 6.93889e-017 0
4.51028e-017 -1.35308e-016 0
3.46945e-017 -1.38778e-016 0
4.85723e-017 -3.46945e-018 0
5.55112e-017 -9.71445e-017 0
1.14492e-016 2.08167e-017 0
2.08167e-017 4.85723e-017 0
4.51028e-017 2.77556e-017 0
5.89806e-017 9.71445e-017 0
1.04083e-016 8.32667e-017 0
1.80411e-016 -1.38778e-017 0
1.80411e-016 -6.59195e-017 0
1.07553e-016 2.77556e-017 0
-1.38778e-017 -1.249e-016 0
-2.08167e-017 -2.77556e-017 0
1.31839e-016 -4.16334e-017 0
7.28584e-017 -6.93889e-017 0
1.04083e-017 4.85723e-017 0
6.59195e-017 5.89806e-017 0
6.93889e-018 1.04083e-016 0
4.85723e-017 2.15106e-016 0
-1.45717e-016 2.01228e-016 0
-1.00614e-016 1.38778e-016 0
5.89806e-017 -5.89806e-017 0
4.51028e-017 6.93889e-018 0
2.46331e-016 -1.63064e-016 0
1.04083e-017 -9.36751e-017 0
1.249e-016 -1.70003e-016 0
1.38778e-017 -8.32667e-017 0
8.32667e-017 -3.46945e-017 0
-6.59195e-017 -2.77556e-017 0
1.73472e-017 -2.08167e-017 0
3.81639e-017 -3.46945e-018 0
3.46945e-017 1.31839e-016 0
4.16334e-017 -2.42861e-017 0
-1.73472e-017 4.16334e-017 0
0 -2.42861e-017 0
-1.38778e-017 -1.73472e-017 0
-5.20417e-017 -1.14492e-016 0
2.77556e-017 -3.1572e-016 0
6.93889e-018 -2.04697e-016 0
-4.16334e-017 8.32667e-017 0
6.59195e-017 2.77556e-017 0
5.55112e-017 -8.32667e-017 0
2.42861e-017 -1.38778e-016 0
-6.93889e-018 -1.38778e-017 0
6.245e-017 3.81639e-017 0
4.85723e-017 5.20417e-017 0
5.89806e-017 -9.71445e-017 0
-3.46945e-018 -6.245e-017 0
1.35308e-016 -1.38778e-017 0
1.45717e-016 9.02056e-017 0
4.16334e-017 -2.77556e-017 0
8.67362e-017 1.38778e-017 0
6.245e-017 1.17961e-016 0
1.63064e-016 1.42247e-016 0
1.2837e-016 1.38778e-017 0
4.85723e-017 2.15106e-016 0
1.70003e-016 3.1225e-017 0
1.249e-016 1.38778e-017 0
4.16334e-017 6.93889e-017 0
1.14492e-016 2.77556e-017 0
3.46945e-017 -1.04083e-016 0
4.16334e-017 2.77556e-017 0
1.59595e-016 -5.55112e-017 0
4.16334e-017 -2.42861e-017 0
-6.93889e-018 -1.38778e-017 0
1.07553e-016 7.28584e-017 0
6.93889e-018 4.51028e-017 0
9.36751e-017 -1.04083e-017 0
5.20417e-017 6.93889e-018 0
-7.97973e-017 4.16334e-017 0
1.52656e-016 -1.8735e-016 0
5.20417e-017 -1.38778e-017 0
4.16334e-017 6.93889e-017 0
1.17961e-016 4.16334e-017 0
2.08167e-017 1.21431e-016 0
-2.42861e-017 1.2837e-016 0
1.04083e-016 -1.14492e-016 0
3.81639e-017 -5.89806e-017 0
-2.08167e-017 -3.81639e-017 0
2.08167e-017 5.55112e-017 0
1.38778e-016 -1.04083e-016 0
1.00614e-016 8.67362e-017 0
-6.93889e-017 -4.16334e-017 0
4.16334e-017 1.73472e-017 0
-1.04083e-017 0 0
1.35308e-016 -6.59195e-017 0
2.77556e-017 2.42861e-017 0
-2.08167e-017 6.245e-017 0
1.73472e-017 3.46945e-017 0
-1.52656e-016 3.46945e-017 0
0 4.85723e-017 0
-1.56125e-016 6.245e-017 0
1.38778e-017 -8.32667e-017 0
1.21431e-016 -4.51028e-017 0
2.08167e-017 6.93889e-018 0
-2.77556e-017 -2.08167e-017 0
2.42861e-017 1.38778e-017 0
1.21431e-016 -1.49186e-016 0
1.42247e-016 4.85723e-017 0
4.51028e-017 -6.59195e-017 0
-5.89806e-017 3.46945e-018 0
-1.04083e-017 5.89806e-017 0
-3.46945e-018 3.46945e-018 0
-7.28584e-017 -7.63278e-017 0
-7.63278e-017 -7.63278e-017 0
-3.46945e-018 7.97973e-017 0
-2.42861e-017 -2.77556e-017 0
5.55112e-017 -7.63278e-017 0
-3.46945e-018 -1.04083e-017 0
5.89806e-017 2.08167e-017 0
-3.81639e-017 7.97973e-017 0
-2.08167e-017 3.46945e-018 0
-5.55112e-017 8.67362e-017 0
-6.59195e-017 2.11636e-016 0
0 2.18575e-016 0
1.73472e-017 1.8735e-016 0
3.81639e-017 4.85723e-017 0
-3.1225e-017 1.73472e-017 0
-1.76942e-016 1.42247e-016 0
-3.81639e-017 1.80411e-016 0
-1.00614e-016 1.21431e-016 0
2.18575e-016 1.83881e-016 0
-1.73472e-017 3.1225e-017 0
-7.28584e-017 4.51028e-017 0
3.46945e-017 5.55112e-017 0
1.00614e-016 -4.16334e-017 0
7.28584e-017 0 0
-1.04083e-016 1.73472e-017 0
6.93889e-018 1.38778e-017 0
7.97973e-017 6.245e-017 0
-4.51028e-017 -6.93889e-017 0
1.59595e-016 9.02056e-017 0
-2.04697e-016 2.42861e-017 0
-1.249e-016 1.73472e-017 0
-1.38778e-017 1.63064e-016 0
-1.17961e-016 2.77556e-017 0
-3.1225e-017 -1.70003e-016 0
-3.46945e-017 -6.245e-017 0
8.67362e-017 -7.97973e-017 0
8.32667e-017 -3.05311e-016 0
1.38778e-017 -1.17961e-016 0
-3.46945e-017 -1.04083e-016 0
-5.55112e-017 5.55112e-017 0
2.77556e-017 -8.32667e-017 0
1.2837e-016 -1.73472e-017 0
2.77556e-017 6.59195e-017 0
0 1.73472e-017 0
6.93889e-017 -9.02056e-017 0
4.85723e-017 -5.89806e-017 0
4.51028e-017 -8.32667e-017 0
-6.93889e-018 3.46945e-018 0
8.32667e-017 -2.08167e-017 0
-1.73472e-017 -7.63278e-017 0
-2.42861e-017 -5.55112e-017 0
-4.16334e-017 -2.08167e-017 0
-2.08167e-017 3.1225e-017 0
1.38778e-016 -9.71445e-017 0
6.245e-017 -3.46945e-018 0
-6.93889e-018 -1.45717e-016 0
-5.20417e-017 2.08167e-017 0
6.59195e-017 5.55112e-017 0
1.00614e-016 5.89806e-017 0
-2.77556e-017 -1.49186e-016 0
-6.93889e-017 -3.1225e-017 0
7.97973e-017 -9.02056e-017 0
7.63278e-017 3.1225e-017 0
-3.81639e-017 -9.02056e-017 0
-1.04083e-017 -1.73472e-016 0
-1.00614e-016 -6.93889e-017 0
1.56125e-016 -1.97758e-016 0
7.63278e-017 -3.46945e-017 0
1.73472e-017 -2.01228e-016 0
-1.04083e-016 -1.45717e-016 0
3.46945e-017 -8.32667e-017 0
-1.35308e-016 -1.97758e-016 0
-6.93889e-017 -1.73472e-017 0
3.46945e-017 -1.63064e-016 0
5.20417e-017 -3.46945e-018 0
1.52656e-016 -4.51028e-017 0
9.36751e-017 9.02056e-017 0
7.97973e-017 -1.04083e-017 0
2.11636e-016 -1.63064e-016 0
8.67362e-017 1.49186e-016 0
-6.93889e-018 1.2837e-016 0
-5.55112e-017 8.67362e-017 0
6.93889e-018 -3.46945e-018 0
8.32667e-017 1.73472e-016 0
2.08167e-017 5.55112e-017 0
-6.245e-017 2.22045e-016 0
-3.1225e-017 3.1225e-017 0
-8.67362e-017 2.77556e-017 0
8.32667e-017 6.245e-017 0
-3.1225e-017 -2.01228e-016 0
-3.46945e-017 4.85723e-017 0
2.77556e-017 -5.20417e-017 0
6.245e-017 -1.73472e-017 0
9.02056e-017 5.55112e-017 0
1.31839e-016 1.04083e-017 0
9.71445e-017 -6.93889e-018 0
2.42861e-017 -5.20417e-017 0
5.20417e-017 -6.93889e-018 0
-1.04083e-017 6.245e-017 0
1.04083e-017 4.85723e-017 0
0 2.77556e-017 0
1.04083e-016 1.63064e-016 0
1.31839e-016 1.52656e-016 0
8.67362e-017 2.25514e-016 0