# vtk DataFile Version 4.0
SiwiRVisFile
ASCII
DATASET STRUCTURED_POINTS
DIMENSIONS 5 5 1
ORIGIN 0 0 0
SPACING 1 1 1
POINT_DATA 25

SCALARS flags double 1
LOOKUP_TABLE default
1
1
1
1
1
1
1
1
1
1
1
1
1
1
1
1
1
1
1
1
1
1
1
1
1

SCALARS density double 1
LOOKUP_TABLE default
1
1
1
1
1
0.998242
1.00031
0.999955
0.999692
1.00178
1.0078
0.990938
1.00041
1.00899
0.992397
0.986406
0.987327
0.999059
1.00973
1.01537
0.950689
1.02704
1.00091
0.968865
1.0541

VECTORS velocity double
2.77556e-017 -2.77556e-017 0
6.93889e-018 -6.93889e-018 0
2.77556e-017 -6.93889e-018 0
0 -6.93889e-018 0
-6.93889e-018 0 0
-0.00250243 0.00175782 0
-0.00153756 -0.000310033 0
-0.000914474 4.49057e-005 0
-0.00146149 0.000307867 0
-0.0023552 -0.00177672 0
0.00264738 -0.00481906 0
0.00423019 0.00320731 0
0.00817308 -0.000472381 0
0.00370493 -0.00298498 0
0.00201405 0.00488572 0
-0.000217256 0.0156259 0
-0.0153582 0.00828757 0
-0.00946132 0.000282994 0
-0.0145829 -0.00724997 0
0.000536827 -0.0163749 0
0.0114662 0.0243321 0
0.0353547 0.00891206 0
0.0244643 -0.000249372 0
0.0341895 -0.0081218 0
0.0106879 -0.0240942 0
