# vtk DataFile Version 4.0
SiwiRVisFile
ASCII
DATASET STRUCTURED_POINTS
DIMENSIONS 50 50 1
ORIGIN 0 0 0
SPACING 1 1 1
POINT_DATA 2500

SCALARS flags double 1
LOOKUP_TABLE default
1
1
1
1
1
1
1
1
1
1
1
1
1
1
1
1
1
1
1
1
1
1
1
1
1
1
1
1
1
1
1
1
1
1
1
1
1
1
1
1
1
1
1
1
1
1
1
1
1
1
1
1
1
1
1
1
1
1
1
1
1
1
1
1
1
1
1
1
1
1
1
1
1
1
1
1
1
1
1
1
1
1
1
1
1
1
1
1
1
1
1
1
1
1
1
1
1
1
1
1
1
1
1
1
1
1
1
1
1
1
1
1
1
1
1
1
1
1
1
1
1
1
1
1
1
1
1
1
1
1
1
1
1
1
1
1
1
1
1
1
1
1
1
1
1
1
1
1
1
1
1
1
1
1
1
1
1
1
1
1
1
1
1
1
1
1
1
1
1
1
1
1
1
1
1
1
1
1
1
1
1
1
1
1
1
1
1
1
1
1
1
1
1
1
1
1
1
1
1
1
1
1
1
1
1
1
1
1
1
1
1
1
1
1
1
1
1
1
1
1
1
1
1
1
1
1
1
1
1
1
1
1
1
1
1
1
1
1
1
1
1
1
1
1
1
1
1
1
1
1
1
1
1
1
1
1
1
1
1
1
1
1
1
1
1
1
1
1
1
1
1
1
1
1
1
1
1
1
1
1
1
1
1
1
1
1
1
1
1
1
1
1
1
1
1
1
1
1
1
1
1
1
1
1
1
1
1
1
1
1
1
1
1
1
1
1
1
1
1
1
1
1
1
1
1
1
1
1
1
1
1
1
1
1
1
1
1
1
1
1
1
1
1
1
1
1
1
1
1
1
1
1
1
1
1
1
1
1
1
1
1
1
1
1
1
1
1
1
1
1
1
1
1
1
1
1
1
1
1
1
1
1
1
1
1
1
1
1
1
1
1
1
1
1
1
1
1
1
1
1
1
1
1
1
1
1
1
1
1
1
1
1
1
1
1
1
1
1
1
1
1
1
1
1
1
1
1
1
1
1
1
1
1
1
1
1
1
1
1
1
1
1
1
1
1
1
1
1
1
1
1
1
1
1
1
1
1
1
1
1
1
1
1
1
1
1
1
1
1
1
1
1
1
1
1
1
1
1
1
1
1
1
1
1
1
1
1
1
1
1
1
1
1
1
1
1
1
1
1
1
1
1
1
1
1
1
1
1
1
1
1
1
1
1
1
1
1
1
1
1
1
1
1
1
1
1
1
1
1
1
1
1
1
1
1
1
1
1
1
1
1
1
1
1
1
1
1
1
1
1
1
1
1
1
1
1
1
1
1
1
1
1
1
1
1
1
1
1
1
1
1
1
1
1
1
1
1
1
1
1
1
1
1
1
1
1
1
1
1
1
1
1
1
1
1
1
1
1
1
1
1
1
1
1
1
1
1
1
1
1
1
1
1
1
1
1
1
1
1
1
1
1
1
1
1
1
1
1
1
1
1
1
1
1
1
1
1
1
1
1
1
1
1
1
1
1
1
1
1
1
1
1
1
1
1
1
1
1
1
1
1
1
1
1
1
1
1
1
1
1
1
1
1
1
1
1
1
1
1
1
1
1
1
1
1
1
1
1
1
1
1
1
1
1
1
1
1
1
1
1
1
1
1
1
1
1
1
1
1
1
1
1
1
1
1
1
1
1
1
1
1
1
1
1
1
1
1
1
1
1
1
1
1
1
1
1
1
1
1
1
1
1
1
1
1
1
1
1
1
1
1
1
1
1
1
1
1
1
1
1
1
1
1
1
1
1
1
1
1
1
1
1
1
1
1
1
1
1
1
1
1
1
1
1
1
1
1
1
1
1
1
1
1
1
1
1
1
1
1
1
1
1
1
1
1
1
1
1
1
1
1
1
1
1
1
1
1
1
1
1
1
1
1
1
1
1
1
1
1
1
1
1
1
1
1
1
1
1
1
1
1
1
1
1
1
1
1
1
1
1
1
1
1
1
1
1
1
1
1
1
1
1
1
1
1
1
1
1
1
1
1
1
1
1
1
1
1
1
1
1
1
1
1
1
1
1
1
1
1
1
1
1
1
1
1
1
1
1
1
1
1
1
1
1
1
1
1
1
1
1
1
1
1
1
1
1
1
1
1
1
1
1
1
1
1
1
1
1
1
1
1
1
1
1
1
1
1
1
1
1
1
1
1
1
1
1
1
1
1
1
1
1
1
1
1
1
1
1
1
1
1
1
1
1
1
1
1
1
1
1
1
1
1
1
1
1
1
1
1
1
1
1
1
1
1
1
1
1
1
1
1
1
1
1
1
1
1
1
1
1
1
1
1
1
1
1
1
1
1
1
1
1
1
1
1
1
1
1
1
1
1
1
1
1
1
1
1
1
1
1
1
1
1
1
1
1
1
1
1
1
1
1
1
1
1
1
1
1
1
1
1
1
1
1
1
1
1
1
1
1
1
1
1
1
1
1
1
1
1
1
1
1
1
1
1
1
1
1
1
1
1
1
1
1
1
1
1
1
1
1
1
1
1
1
1
1
1
1
1
1
1
1
1
1
1
1
1
1
1
1
1
1
1
1
1
1
1
1
1
1
1
1
1
1
1
1
1
1
1
1
1
1
1
1
1
1
1
1
1
1
1
1
1
1
1
1
1
1
1
1
1
1
1
1
1
1
1
1
1
1
1
1
1
1
1
1
1
1
1
1
1
1
1
1
1
1
1
1
1
1
1
1
1
1
1
1
1
1
1
1
1
1
1
1
1
1
1
1
1
1
1
1
1
1
1
1
1
1
1
1
1
1
1
1
1
1
1
1
1
1
1
1
1
1
1
1
1
1
1
1
1
1
1
1
1
1
1
1
1
1
1
1
1
1
1
1
1
1
1
1
1
1
1
1
1
1
1
1
1
1
1
1
1
1
1
1
1
1
1
1
1
1
1
1
1
1
1
1
1
1
1
1
1
1
1
1
1
1
1
1
1
1
1
1
1
1
1
1
1
1
1
1
1
1
1
1
1
1
1
1
1
1
1
1
1
1
1
1
1
1
1
1
1
1
1
1
1
1
1
1
1
1
1
1
1
1
1
1
1
1
1
1
1
1
1
1
1
1
1
1
1
1
1
1
1
1
1
1
1
1
1
1
1
1
1
1
1
1
1
1
1
1
1
1
1
1
1
1
1
1
1
1
1
1
1
1
1
1
1
1
1
1
1
1
1
1
1
1
1
1
1
1
1
1
1
1
1
1
1
1
1
1
1
1
1
1
1
1
1
1
1
1
1
1
1
1
1
1
1
1
1
1
1
1
1
1
1
1
1
1
1
1
1
1
1
1
1
1
1
1
1
1
1
1
1
1
1
1
1
1
1
1
1
1
1
1
1
1
1
1
1
1
1
1
1
1
1
1
1
1
1
1
1
1
1
1
1
1
1
1
1
1
1
1
1
1
1
1
1
1
1
1
1
1
1
1
1
1
1
1
1
1
1
1
1
1
1
1
1
1
1
1
1
1
1
1
1
1
1
1
1
1
1
1
1
1
1
1
1
1
1
1
1
1
1
1
1
1
1
1
1
1
1
1
1
1
1
1
1
1
1
1
1
1
1
1
1
1
1
1
1
1
1
1
1
1
1
1
1
1
1
1
1
1
1
1
1
1
1
1
1
1
1
1
1
1
1
1
1
1
1
1
1
1
1
1
1
1
1
1
1
1
1
1
1
1
1
1
1
1
1
1
1
1
1
1
1
1
1
1
1
1
1
1
1
1
1
1
1
1
1
1
1
1
1
1
1
1
1
1
1
1
1
1
1
1
1
1
1
1
1
1
1
1
1
1
1
1
1
1
1
1
1
1
1
1
1
1
1
1
1
1
1
1
1
1
1
1
1
1
1
1
1
1
1
1
1
1
1
1
1
1
1
1
1
1
1
1
1
1
1
1
1
1
1
1
1
1
1
1
1
1
1
1
1
1
1
1
1
1
1
1
1
1
1
1
1
1
1
1
1
1
1
1
1
1
1
1
1
1
1
1
1
1
1
1
1
1
1
1
1
1
1
1
1
1
1
1
1
1
1
1
1
1
1
1
1
1
1
1
1
1
1
1
1
1
1
1
1
1
1
1
1
1
1
1
1
1
1
1
1
1
1
1
1
1
1
1
1
1
1
1
1
1
1
1
1
1
1
1
1
1
1
1
1
1
1
1
1
1
1
1
1
1
1
1
1
1
1
1
1
1
1
1
1
1
1
1
1
1
1
1
1
1
1
1
1
1
1
1
1
1
1
1
1
1
1
1
1
1
1
1
1
1
1
1
1
1
1
1
1
1
1
1
1
1
1
1
1
1
1
1
1
1
1
1
1
1
1
1
1
1
1
1
1
1
1
1
1
1
1
1
1
1
1
1
1
1
1
1
1
1
1
1
1
1
1
1
1
1
1
1
1
1
1
1
1
1
1
1
1
1
1
1
1
1
1
1
1
1
1
1
1
1
1
1
1
1
1
1
1
1
1
1
1
1
1
1
1
1
1
1
1
1
1
1
1
1
1
1
1
1
1
1
1
1
1
1
1
1
1
1
1
1
1
1
1
1
1
1
1
1
1
1
1
1
1
1
1
1
1
1
1
1
1
1
1
1
1
1
1
1
1
1
1
1
1
1
1
1
1
1
1
1
1
1
1
1
1
1
1
1
1
1
1
1
1
1
1
1
1
1
1
1
1
1
1
1
1
1
1
1
1
1
1
1
1
1
1
1
1
1
1
1
1
1
1
1
1
1
1
1
1
1
1
1
1
1
1
1
1
1
1
1
1
1
1
1
1
1
1
1
1
1
1
1
1
1
1
1
1
1
1
1
1
1
1
1
1
1
1
1
1
1
1
1
1
1
1
1
1
1
1
1
1
1
1
1
1
1
1
1
1
1
1
1
1
1
1
1
1
1
1
1
1
1
1
1
1
1
1
1
1
1
1
1
1
1
1
1
1
1
1
1
1
1
1
1
1
1
1
1
1
1
1
1
1
1
1
1
1
1
1
1
1
1
1
1
1
1
1
1
1
1
1
1
1
1
1
1
1
1
1
1
1
1
1
1
1
1
1
1
1
1
1
1
1
1
1
1
1
1
1
1
1
1
1
1
1
1
1
1
1
1
1
1
1
1
1
1
1
1
1
1
1
1
1
1
1
1
1
1
1
1
1
1
1
1
1
1
1
1
1
1
1
1
1
1
1
1
1
1
1
1
1
1
1
1
1
1
1
1
1
1
1
1
1
1
1
1
1
1
1
1
1
1
1
1
1
1
1
1
1
1
1
1
1
1
1
1
1
1
1
1
1
1
1
1
1
1
1
1
1
1
1
1
1
1
1
1
1
1
1
1
1
1
1
1
1
1
1
1
1
1
1
1
1
1
1
1
1
1
1
1
1
1
1
1
1
1
1
1
1
1
1
1
1
1
1
1
1
1
1
1
1
1
1
1
1
1
1
1
1
1
1
1
1
1
1
1
1
1
1
1
1
1
1
1
1
1
1
1
1
1
1
1
1
1
1
1
1
1
1
1
1
1
1
1
1
1
1
1
1
1
1
1
1
1
1
1
1
1
1
1
1
1
1
1
1
1
1
1
1
1
1
1
1
1
1
1
1
1
1
1
1
1
1
1
1
1
1
1
1
1
1
1
1
1
1
1
1
1
1
1
1
1
1
1
1
1
1
1
1
1
1
1
1
1
1
1

SCALARS density double 1
LOOKUP_TABLE default
1
1
1
1
1
1
1
1
1
1
1
1
1
1
1
1
1
1
1
1
1
1
1
1
1
1
1
1
1
1
1
1
1
1
1
1
1
1
1
1
1
1
1
1
1
1
1
1
1
1
1
1
1
1
1
1
1
1
1
1
1
1
1
1
1
1
1
1
1
1
1
1
1
1
1
1
1
1
1
1
1
1
1
1
1
1
1
1
1
1
1
1
1
1
1
1
1
1
1
1
1
1
1
1
1
1
1
1
1
1
1
1
1
1
1
1
1
1
1
1
1
1
1
1
1
1
1
1
1
1
1
1
1
1
1
1
1
1
1
1
1
1
1
1
1
1
1
1
1
1
1
1
1
1
1
1
1
1
1
1
1
1
1
1
1
1
1
1
1
1
1
1
1
1
1
1
1
1
1
1
1
1
1
1
1
1
1
1
1
1
1
1
1
1
1
1
1
1
1
1
1
1
1
1
1
1
1
1
1
1
1
1
1
1
1
1
1
1
1
1
1
1
1
1
1
1
1
1
1
1
1
1
1
1
1
1
1
1
1
1
1
1
1
1
1
1
1
1
1
1
1
1
1
1
1
1
1
1
1
1
1
1
1
1
1
1
1
1
1
1
1
1
1
1
1
1
1
1
1
1
1
1
1
1
1
1
1
1
1
1
1
1
1
1
1
1
1
1
1
1
1
0.999999
1
1
1
1
1
1
1
1
1
1
1
1
1
1
1
1
1
1
0.999999
1
1
1
1
1
1
1
1
1
1
1
1
1
1
1
1
1
1
1
1
1
1
1
1
1
1
1
0.999999
1
1
1
1
1
1
1
1
1
1
1
1
1
1
1
1
1
1
1
1
1
1
1
1
1
1
1
1
1
1
1
1
1
1
1
1
1
0.999999
0.999999
0.999999
0.999999
0.999999
0.999999
1
1
1
1
1
1
1
0.999999
0.999999
1
0.999999
1
1
1
1
1
1
1
1
0.999999
1
1
0.999999
1
1
1
1
1
1
1
1
1
1
0.999998
0.999998
1
0.999999
0.999997
0.999998
1
0.999999
0.999999
1
1
1
1
1
1
1
1
1
1
1
1
1
1
1
0.999999
1
1
1
1
1
1
1
1
1
1
1
1
1
0.999999
0.999999
1
1
0.999998
1
1
0.999995
0.999999
1.00001
0.999997
0.999993
1.00001
1
0.999992
1
1
0.999997
0.999998
1
1
1
1
1
1
1
1
1
1
1
1
1
1
0.999999
1
0.999995
1
1
0.999997
1
1
1
1
1
1
1
1
1
1
0.999999
1
1
1
0.999998
0.999999
1
0.999998
0.999991
0.999997
1
0.999995
0.999994
1.00001
1.00001
0.999997
1
1.00001
1
0.999998
1
1
0.999999
0.999997
0.999999
0.999999
0.999999
0.999999
0.999999
0.999999
0.999999
0.999999
0.999999
0.999999
1
1
1
1
1
1
1
0.999999
0.999999
0.999999
0.999999
0.999999
0.999999
0.999999
1
0.999999
0.999999
1
1
0.99999
1
1.00002
0.999981
0.999979
1.00004
1.00001
0.999949
1.00002
1.00005
0.999955
0.999979
1.00005
0.999995
0.999962
1.00002
1.00002
0.99998
0.999995
1.00001
0.999995
0.999995
1
1
1
1
1
1
1
1
1
1
0.999998
1
0.999998
0.999996
1
0.999998
1
1
1
1
1
1
0.999999
0.999998
1
1
0.999995
1.00001
1
0.999987
1
1.00002
0.999994
0.999991
1.00002
1.00002
0.999992
0.99999
1.00001
1.00001
0.999982
0.999985
1.00001
1
0.999984
1
1.00001
0.999999
0.999997
1.00001
1
1
1
1
1
1
0.999999
0.999999
1
0.999998
0.999999
1
1
0.999998
0.999997
1
1
1
1
1
1
1
1
0.999994
1
1.00002
0.999976
0.99998
1.00006
0.999996
0.999914
1.00005
1.00008
0.999896
0.999974
1.00013
0.999955
0.999889
1.00011
1.00005
0.999869
1.00002
1.0001
0.999927
0.999948
1.00008
1
0.999946
1.00002
1.00002
0.999979
0.999994
1
0.999994
0.999997
0.999999
0.999997
0.999998
1
0.999999
1
0.999999
1.00001
0.999994
0.999993
0.999999
1
1
0.999998
1
1
0.999992
1.00001
1.00001
0.999968
1.00001
1.00005
0.999958
0.999951
1.00007
1.00003
0.999917
0.999986
1.00008
0.999978
0.999903
1.00004
1.00008
0.999924
0.999957
1.0001
1.00002
0.999915
1.00001
1.00008
0.999964
0.99993
1.00005
1.00004
0.999948
0.999987
1.00003
0.999991
0.999989
1.00001
1
0.999998
1
0.999998
1
1
1.00001
1.00001
0.999978
0.999987
0.99999
0.999993
1
0.999995
0.999998
1.00002
0.999981
0.999977
1.00006
0.999993
0.999903
1.00006
1.00008
0.999877
0.999978
1.00015
0.999932
0.999898
1.00013
1.00002
0.999865
1.00004
1.0001
0.99991
0.999944
1.00013
0.999995
0.999873
1.00009
1.00007
0.999866
1.00002
1.00012
0.999925
0.999948
1.00009
1.00001
0.999949
1.00002
1.00002
0.999985
1
1.00001
0.999997
1.00001
1.00001
1.00002
1.00002
0.999963
0.999973
0.999979
0.999973
0.999999
1
0.999965
1.00001
1.00005
0.999923
0.999954
1.00013
0.999995
0.999853
1.00005
1.00012
0.999909
0.999911
1.00012
1.00006
0.999849
1.00001
1.00016
0.999939
0.999884
1.00011
1.00007
0.999846
0.999979
1.00015
0.99995
0.999877
1.00009
1.00009
0.999884
0.999955
1.00014
1
0.99988
1.00004
1.00007
0.999949
0.999985
1.00003
0.999998
1
1.00003
1.00002
1.00003
1.00004
0.999963
0.999947
0.999974
0.999955
0.999958
1.00003
0.999985
0.999902
1.00007
1.0001
0.999864
0.99997
1.00015
0.999949
0.999913
1.00012
0.999993
0.999912
1.00007
1.00001
0.999946
1.00004
1.00002
0.999986
0.999994
1
1.00002
0.999987
0.99995
1.00005
0.999997
0.99993
1.00007
1.00001
0.99989
1.00007
1.00004
0.999861
1.00003
1.00012
0.999908
0.999935
1.00009
1.00001
0.999969
1.00004
1.00005
1.00003
1.00005
1.00004
0.999962
0.999894
0.999944
0.999978
0.999877
0.999946
1.00011
0.999948
0.999845
1.00011
1.0001
0.99986
0.999976
1.00013
0.999979
0.999881
1.00006
1.0001
0.999887
0.999935
1.00012
0.999968
0.999891
1.00006
1.00006
0.999943
0.999927
1.0001
1.00005
0.999871
1.00005
1.00012
0.999901
0.999936
1.00012
1.00002
0.999877
1.00003
1.00013
0.999906
0.999903
1.00014
1.00004
0.999899
1.00005
1.00011
1.00002
1.00005
1.0001
1.00003
0.999895
0.999846
0.9998
0.999941
0.999937
0.999746
0.999904
1.00012
0.999909
0.999857
1.00008
1.00001
0.999914
1.00003
1
0.999976
1.00004
0.999963
0.999973
1.00005
0.999977
1.00001
0.999995
0.999963
1.00004
0.999968
1.00003
1
0.999992
1.00003
0.999944
1.00001
1.00005
0.999966
1.00001
0.999994
0.999979
1.00007
0.999978
0.999929
1.00013
1.00007
0.999881
1.00009
1.00022
1.00006
1.00006
1.00018
1.00014
1.00009
0.999701
0.99992
0.999689
0.99962
0.999898
0.999872
0.999654
0.999857
1.00004
0.999897
0.999902
1.00005
1.00004
0.999914
0.999971
1.00012
0.999941
0.999898
1.00016
1.00004
0.999901
0.999998
1.00011
0.999973
0.999892
1.00009
1.00005
0.99989
0.999982
1.0001
0.999981
0.999828
1.00008
1.00007
0.999875
1.00002
1.00008
0.999948
0.999937
1.00009
1.00008
0.999956
1.00013
1.0003
1.0001
1.0001
1.00034
1.00027
1.00006
1.00026
0.999488
0.999713
0.999697
0.999474
0.999441
0.999714
0.99972
0.999604
0.999794
0.999929
0.999911
0.999903
0.999998
1.00002
1
0.999948
1.00004
1.00003
0.999892
1.00002
1.00005
0.999948
0.999988
1.00002
0.999983
1.00001
0.999976
1.00001
1.00006
0.999935
0.999968
1.00012
0.999964
0.999945
1.00006
1
0.999963
0.999988
1.00009
1.00007
1.00004
1.00018
1.00035
1.00022
1.00025
1.00048
1.00043
1.00022
1.00024
1.00041
0.999546
0.998991
0.999134
0.999446
0.999167
0.999125
0.999391
0.999443
0.999412
0.999618
0.999823
0.999771
0.999816
1.00012
0.999981
0.999785
1.00007
1.00014
0.999854
0.999941
1.00007
1.00003
0.999873
1.00003
1.00019
0.999832
0.999937
1.00014
0.999973
0.999922
1.00004
1.00014
0.999873
0.999905
1.0002
1.00002
0.999871
1.00016
1.0002
1.00012
1.00032
1.00051
1.00045
1.00048
1.00074
1.00065
1.00042
1.00068
1.00084
1.00033
0.998931
0.998689
0.998594
0.998796
0.998793
0.998734
0.998761
0.999026
0.999084
0.999146
0.999464
0.999722
0.99968
0.999747
1.00001
1.00007
0.999921
0.999938
1.00016
0.999929
0.999977
1.00001
1.00009
1.00003
0.999769
1.00021
1.00001
0.999884
0.99997
1.00003
1.00007
0.99982
1.00005
1.0001
0.999905
0.99995
1.00021
1.00027
1.0002
1.00043
1.00071
1.00073
1.00076
1.00099
1.00099
1.00088
1.00094
1.00106
1.00096
1.00085
0.997858
0.998754
0.998338
0.997949
0.998249
0.998441
0.998225
0.998357
0.998673
0.998683
0.998808
0.999285
0.999579
0.999467
0.999794
1.00006
0.999833
0.999923
1.00002
1.00016
0.99982
0.999959
1.0001
0.999892
1.00001
0.999977
1.0001
0.999911
1.00002
1.00017
0.999868
0.999965
1.00004
1.00014
0.999929
1.00014
1.00044
1.00032
1.00054
1.00096
1.00104
1.00101
1.00127
1.00134
1.00112
1.00123
1.00156
1.00119
1.00081
1.00162
0.99783
0.997958
0.997573
0.9978
0.998006
0.997905
0.997828
0.997829
0.997905
0.998251
0.998262
0.998465
0.998887
0.999377
0.99942
0.999577
0.999958
1.00003
0.999815
0.999897
1.00022
0.999938
0.999883
1.00005
1.00013
0.999887
0.999921
1.00013
1.00008
0.999774
1.00004
1.00019
0.999965
0.999972
1.00034
1.00048
1.00046
1.00087
1.00122
1.00135
1.0013
1.00156
1.00161
1.00154
1.00153
1.00139
1.00157
1.00175
1.00157
1.0015
0.99782
0.997234
0.997639
0.998198
0.997807
0.997486
0.998061
0.997958
0.997588
0.997621
0.997952
0.997982
0.998235
0.998712
0.999235
0.999234
0.999726
0.99983
0.999983
0.999887
1.00007
1.00012
0.999853
1.0001
0.999974
1.00001
0.999916
1.0001
0.999912
0.999904
1.00008
0.999976
1.00013
1.00018
1.00059
1.00059
1.00097
1.00137
1.00152
1.0015
1.00176
1.00178
1.00145
1.00132
1.00187
1.00163
1.00132
1.00165
1.00219
1.00159
0.997149
0.997643
0.998191
0.997914
0.997954
0.998116
0.998183
0.99783
0.998057
0.997724
0.997508
0.99781
0.997845
0.99786
0.998359
0.999279
0.999054
0.999567
0.999893
0.999999
0.999679
0.999956
1.00028
0.999764
0.999925
1.00004
1.00023
0.999769
0.999952
1.0003
1.00002
1.00002
1.00031
1.00079
1.00051
1.00121
1.00167
1.00162
1.0016
1.00187
1.00171
1.00138
1.00166
1.00143
1.00146
1.00158
1.0018
1.00138
1.00176
1.00225
0.997338
0.998087
0.997753
0.997201
0.998003
0.998369
0.997941
0.997794
0.998264
0.998259
0.997476
0.997448
0.997629
0.997624
0.997729
0.99832
0.998995
0.999041
0.999594
0.999767
1.00006
0.9999
0.99993
1.00013
0.999922
1.00008
0.999873
1.00001
1.00009
0.999918
1.00014
1.00032
1.00072
1.00073
1.00126
1.00178
1.00181
1.00179
1.00199
1.00198
1.00137
1.0014
1.00185
1.0018
1.00151
1.00163
1.00246
1.00202
1.0016
1.00207
0.998054
0.997388
0.99741
0.997865
0.997835
0.997129
0.998119
0.99834
0.997942
0.998077
0.99848
0.997686
0.997591
0.997701
0.997762
0.99737
0.998325
0.999101
0.99902
0.999668
0.999849
1.00004
0.999695
1.0001
1.00027
0.999745
0.999829
1.00026
0.999983
1.00004
1.00019
1.00077
1.00066
1.00117
1.00208
1.00172
1.00173
1.00193
1.00189
1.00121
1.00162
1.00187
1.00147
1.00158
1.00261
1.00193
1.00178
1.00221
1.00246
1.00169
0.997848
0.997031
0.99753
0.99778
0.997342
0.996917
0.997934
0.998026
0.997565
0.997968
0.998366
0.998439
0.997453
0.997626
0.997331
0.997713
0.997504
0.998146
0.998972
0.999028
0.999579
0.999732
1.00009
0.999855
0.999836
1.00011
1.00013
0.999888
1.00015
1.00034
1.00075
1.00071
1.0014
1.00204
1.00176
1.00208
1.00198
1.00214
1.00136
1.00146
1.00185
1.00212
1.00188
1.00182
1.00264
1.00235
1.00205
1.002
1.00269
1.00211
0.997231
0.998077
0.998188
0.996971
0.997675
0.998094
0.997347
0.996807
0.998062
0.998137
0.997606
0.998004
0.998563
0.997563
0.997623
0.997589
0.997528
0.997364
0.998438
0.999101
0.999111
0.999735
1.00004
0.999889
0.999876
1.00007
1.00012
0.999894
1.0001
1.00067
1.00068
1.00112
1.00205
1.00201
1.00193
1.00203
1.00213
1.00127
1.00175
1.00229
1.00178
1.0017
1.00294
1.00254
1.00173
1.00207
1.00299
1.00176
1.00185
1.00264
0.99799
0.998218
0.998105
0.997593
0.998212
0.997721
0.997718
0.997281
0.997836
0.997557
0.99767
0.997948
0.9985
0.998168
0.997613
0.997531
0.997415
0.997822
0.997389
0.998382
0.999232
0.999334
0.999589
0.999907
1.00012
0.99986
0.999962
1.00029
1.00053
1.0005
1.00115
1.00215
1.00179
1.00203
1.00214
1.0021
1.00166
1.00146
1.00199
1.00211
1.00227
1.00214
1.00243
1.00216
1.00242
1.00187
1.00237
1.00211
1.00204
1.00202
0.998374
0.996666
0.997307
0.99793
0.997599
0.996537
0.997788
0.997934
0.99658
0.997143
0.997887
0.997947
0.997099
0.99825
0.998349
0.997226
0.997499
0.997293
0.997576
0.997647
0.998584
0.999217
0.999316
0.99989
0.999969
0.999961
0.999988
1.00048
1.00059
1.00105
1.00189
1.00198
1.00228
1.0022
1.00255
1.00164
1.00158
1.00276
1.00207
1.00188
1.00265
1.00331
1.00199
1.00202
1.00331
1.00242
1.00203
1.0027
1.00343
1.00181
0.997285
0.997384
0.99791
0.996937
0.997735
0.997819
0.997883
0.997554
0.99796
0.99768
0.997528
0.9975
0.99805
0.998043
0.99818
0.9982
0.997499
0.997423
0.99753
0.997782
0.9978
0.998796
0.999733
0.999584
0.999684
1.00015
1.00034
1.00012
1.00076
1.00178
1.0019
1.00201
1.00228
1.00238
1.00166
1.00171
1.00202
1.00185
1.00231
1.00244
1.00223
1.00189
1.00242
1.00222
1.00197
1.00217
1.00302
1.00192
1.0024
1.0028
0.996499
0.997886
0.998034
0.99607
0.997914
0.998433
0.997382
0.996797
0.998294
0.997997
0.996572
0.997453
0.998057
0.997628
0.997286
0.998406
0.998007
0.996955
0.997198
0.99732
0.997808
0.998212
0.99894
0.999512
0.999725
1.0001
1.00028
1.00075
1.00144
1.00183
1.0023
1.00255
1.00281
1.00197
1.00153
1.00264
1.00244
1.00182
1.0024
1.00337
1.00217
1.00174
1.00313
1.00277
1.00169
1.00205
1.00375
1.00203
1.002
1.00327
0.997878
0.996137
0.997055
0.997352
0.997505
0.996319
0.997218
0.997638
0.996945
0.997164
0.997808
0.997264
0.997248
0.997489
0.998419
0.997695
0.997873
0.998138
0.997175
0.997273
0.997716
0.998072
0.998389
0.999403
1.00003
0.999823
1.00024
1.00125
1.00167
1.00193
1.0024
1.00275
1.00187
1.00198
1.00241
1.00162
1.00227
1.00271
1.00276
1.00209
1.00264
1.00314
1.00225
1.00253
1.00367
1.00255
1.00246
1.00299
1.00376
1.00188
0.997669
0.996091
0.997193
0.997956
0.997388
0.995966
0.997728
0.998271
0.997355
0.997308
0.998484
0.998161
0.997005
0.997856
0.998104
0.997773
0.997846
0.998261
0.997681
0.996877
0.997129
0.997706
0.998484
0.999022
0.999512
1.00018
1.00072
1.00121
1.00194
1.00262
1.00298
1.00229
1.00177
1.00219
1.00228
1.00189
1.00202
1.00298
1.00207
1.00151
1.00248
1.00257
1.00173
1.00203
1.00379
1.00264
1.00211
1.00264
1.00364
1.00239
0.996476
0.997548
0.998421
0.995321
0.997691
0.998236
0.996857
0.996565
0.998049
0.997983
0.996302
0.997363
0.998024
0.997014
0.997092
0.997899
0.998181
0.997315
0.99756
0.997685
0.996888
0.997334
0.998233
0.998663
0.999335
1.00026
1.00109
1.00151
1.00234
1.00303
1.00243
1.00232
1.00273
1.00198
1.00195
1.00287
1.00317
1.00204
1.00245
1.00382
1.00217
1.00182
1.00342
1.00329
1.0017
1.00238
1.00467
1.0018
1.00236
1.00358
0.997138
0.997578
0.997594
0.996127
0.997586
0.997711
0.997241
0.996839
0.997645
0.997544
0.997058
0.997578
0.998017
0.997747
0.99725
0.998116
0.998047
0.998083
0.998004
0.997857
0.997598
0.997141
0.997589
0.998658
0.999618
1.0001
1.00094
1.00214
1.00282
1.00242
1.00214
1.00218
1.00203
1.00193
1.0018
1.00273
1.00246
1.00198
1.00239
1.00289
1.00242
1.00234
1.00323
1.00292
1.00252
1.00246
1.00351
1.00264
1.00272
1.00273
0.998695
0.994665
0.996287
0.998576
0.997138
0.994805
0.998037
0.998454
0.995775
0.996626
0.998592
0.998122
0.996356
0.997867
0.998558
0.996979
0.997366
0.998355
0.997847
0.996918
0.997111
0.997276
0.997187
0.998168
0.99936
1.00035
1.00148
1.00264
1.00283
1.00294
1.00316
1.00238
1.00168
1.00258
1.00333
1.00174
1.00185
1.0036
1.00217
1.0014
1.00315
1.00443
1.00182
1.00198
1.00522
1.00312
1.00134
1.00381
1.00542
1.00175
0.996966
0.996387
0.998261
0.997045
0.997254
0.996942
0.996928
0.997723
0.997348
0.997114
0.99762
0.997624
0.997464
0.997596
0.997727
0.997601
0.99769
0.998036
0.997955
0.997964
0.997739
0.997466
0.997709
0.998158
0.998962
1.00067
1.00181
1.00235
1.00258
1.00251
1.00227
1.00213
1.00205
1.00237
1.00244
1.00237
1.0026
1.00253
1.00234
1.00227
1.00291
1.00282
1.00249
1.00328
1.00297
1.00286
1.00352
1.00196
1.0034
1.00377
0.994333
0.999081
0.997595
0.993355
0.996789
0.998743
0.995664
0.994861
0.997982
0.998152
0.995847
0.997251
0.998374
0.997366
0.996877
0.997919
0.998087
0.996921
0.997784
0.998377
0.997276
0.996722
0.997231
0.998063
0.99915
1.00064
1.00186
1.00284
1.00349
1.00307
1.00188
1.00214
1.00323
1.00219
1.00197
1.00324
1.00305
1.00168
1.0025
1.00445
1.00227
1.002
1.00509
1.00457
1.00145
1.00311
1.00671
1.00279
1.00111
1.00599
0.999082
0.995007
0.996743
0.997177
0.997361
0.996276
0.997265
0.997954
0.996412
0.997392
0.998133
0.997243
0.997058
0.997902
0.998398
0.997842
0.99777
0.99834
0.998031
0.9976
0.997875
0.997752
0.99736
0.997927
0.999446
1.00069
1.00211
1.00294
1.00276
1.00239
1.00248
1.00217
1.0018
1.00227
1.00239
1.00177
1.00205
1.00275
1.00292
1.00218
1.00264
1.00387
1.00221
1.00263
1.00416
1.00305
1.00256
1.00391
1.00574
1.00094
0.997881
0.993452
0.995486
0.999406
0.99627
0.99376
0.99803
0.99808
0.995117
0.995713
0.998166
0.997344
0.996057
0.997665
0.998239
0.996969
0.997139
0.997958
0.997263
0.996922
0.997683
0.997623
0.997234
0.997778
0.999269
1.00083
1.00254
1.00329
1.00291
1.00266
1.00332
1.00303
1.00207
1.00283
1.00336
1.0019
1.00198
1.00407
1.00309
1.00185
1.004
1.00512
1.00229
1.00194
1.0064
1.00429
1.00108
1.00508
1.00664
1.00307
0.99348
0.998246
0.998193
0.992722
0.996974
0.999154
0.995901
0.995723
0.997718
0.998191
0.996094
0.997216
0.998674
0.997864
0.997304
0.998275
0.998638
0.997848
0.99778
0.998566
0.998028
0.997323
0.997919
0.998549
0.999425
1.00093
1.00207
1.00269
1.0031
1.00244
1.00152
1.00214
1.00249
1.00167
1.00163
1.00275
1.00263
1.00153
1.00264
1.00433
1.00241
1.00219
1.00425
1.00463
1.00098
1.00315
1.00794
1.0022
1.00197
1.00763
0.995191
0.999842
0.99613
0.992803
0.996917
0.998209
0.995549
0.995494
0.998276
0.997399
0.995651
0.99653
0.997857
0.997243
0.996771
0.997798
0.997934
0.997034
0.997073
0.997355
0.997004
0.997248
0.997576
0.998116
0.999478
1.00147
1.00276
1.00335
1.00355
1.00353
1.00291
1.00294
1.00315
1.00214
1.00182
1.00325
1.00315
1.0021
1.00313
1.00467
1.00314
1.00182
1.00471
1.00493
1.00206
1.00317
1.00762
1.00443
1.00187
1.00569
1.00114
0.988426
0.994172
1.00108
0.996362
0.993042
0.997385
0.999556
0.994999
0.995695
0.99818
0.997696
0.996484
0.997938
0.998786
0.997763
0.997951
0.998816
0.998115
0.997217
0.99789
0.998439
0.997676
0.998227
0.999695
1.0012
1.00274
1.00347
1.00247
1.0021
1.00265
1.00204
1.00123
1.00198
1.00257
1.00148
1.00205
1.00393
1.00307
1.00178
1.004
1.00578
1.00088
1.00219
1.00711
1.00475
0.999266
1.0066
1.01174
0.998246
0.993002
0.991812
0.996374
0.997333
0.99506
0.995313
0.997356
0.997301
0.995968
0.996765
0.9972
0.996866
0.996993
0.997707
0.997801
0.997414
0.997595
0.99774
0.997169
0.997084
0.997242
0.997017
0.997473
0.998999
1.00022
1.00141
1.00277
1.00402
1.00412
1.0033
1.0031
1.00296
1.00208
1.00206
1.00266
1.00224
1.00216
1.00332
1.00369
1.00291
1.00315
1.00462
1.0031
1.00257
1.00488
1.00595
1.00348
1.0042
1.00856
1.00922
0.991036
1.0068
0.996713
0.989923
0.996802
1.00014
0.995277
0.994694
0.998573
0.997863
0.99494
0.996696
0.998458
0.99746
0.997142
0.998618
0.998697
0.997442
0.997437
0.997927
0.997244
0.996904
0.998098
0.998674
0.99973
1.00163
1.00267
1.00326
1.00424
1.00347
1.0019
1.00222
1.00248
1.00101
1.00097
1.00327
1.00336
1.00159
1.00346
1.00611
1.0023
1.00085
1.00605
1.00576
0.99854
1.00416
1.01203
1.00201
0.994643
1.02289

VECTORS velocity double
-7.63278e-017 -3.81639e-017 0
-2.08167e-016 -2.56739e-016 0
1.04083e-016 -2.28983e-016 0
4.16334e-017 6.93889e-018 0
1.80411e-016 -9.71445e-017 0
7.28584e-017 -1.14492e-016 0
5.20417e-017 7.28584e-017 0
1.14492e-016 -1.11022e-016 0
-2.15106e-016 -2.08167e-017 0
-7.28584e-017 9.71445e-017 0
2.15106e-016 2.56739e-016 0
4.16334e-017 1.04083e-017 0
-1.80411e-016 6.59195e-017 0
4.85723e-017 1.38778e-017 0
-1.04083e-016 2.498e-016 0
5.89806e-017 8.32667e-017 0
1.17961e-016 -2.08167e-017 0
-7.97973e-017 -1.04083e-016 0
7.97973e-017 0 0
-1.31839e-016 -3.1225e-017 0
-4.16334e-017 1.17961e-016 0
-2.08167e-017 2.98372e-016 0
2.39392e-016 7.97973e-017 0
-9.71445e-017 -2.77556e-017 0
-2.08167e-017 1.73472e-017 0
-6.93889e-017 0 0
1.249e-016 -1.38778e-017 0
1.00614e-016 2.5327e-016 0
6.93889e-018 5.20417e-017 0
-8.32667e-017 7.63278e-017 0
1.11022e-016 -7.63278e-017 0
-3.46945e-018 8.32667e-017 0
3.81639e-017 1.73472e-017 0
1.35308e-016 1.76942e-016 0
-1.17961e-016 1.17961e-016 0
-1.52656e-016 3.1225e-017 0
-6.245e-017 -7.28584e-017 0
-1.70003e-016 6.245e-017 0
1.38778e-016 -3.81639e-017 0
2.08167e-017 3.46945e-018 0
1.73472e-017 -8.67362e-017 0
-7.63278e-017 2.08167e-017 0
-7.63278e-017 -6.245e-017 0
1.21431e-016 3.81639e-017 0
1.38778e-016 -1.8735e-016 0
-3.46945e-018 -1.04083e-016 0
-7.97973e-017 1.07553e-016 0
2.25514e-016 -6.93889e-018 0
-1.11022e-016 -7.63278e-017 0
-2.08167e-016 -5.89806e-017 0
2.08167e-017 -3.81639e-017 0
1.59595e-016 -6.245e-017 0
2.32453e-016 -1.63064e-016 0
3.81639e-017 -9.71445e-017 0
-3.46945e-018 -2.5327e-016 0
-3.81639e-017 -2.67147e-016 0
-1.97758e-016 -1.76942e-016 0
-2.42861e-016 -3.747e-016 0
-8.67362e-017 -6.245e-017 0
2.32453e-016 5.89806e-017 0
1.73472e-017 1.249e-016 0
-6.245e-017 -2.42861e-016 0
-9.36751e-017 -5.20417e-017 0
-9.02056e-017 -5.89806e-017 0
6.245e-017 4.85723e-017 0
-2.18575e-016 5.55112e-017 0
-7.63278e-017 3.1225e-017 0
-1.49186e-016 -1.2837e-016 0
1.249e-016 -1.00614e-016 0
1.04083e-017 -2.81025e-016 0
2.39392e-016 -4.16334e-017 0
1.66533e-016 6.245e-017 0
1.249e-016 -2.22045e-016 0
3.46945e-018 -1.2837e-016 0
-7.97973e-017 -1.94289e-016 0
-3.46945e-018 -1.42247e-016 0
1.56125e-016 -4.23273e-016 0
-1.42247e-016 -1.21431e-016 0
-2.81025e-016 -1.80411e-016 0
-2.46331e-016 0 0
-2.77556e-017 3.81639e-017 0
-1.04083e-016 -3.46945e-018 0
5.20417e-017 7.28584e-017 0
5.55112e-017 -1.35308e-016 0
-1.97758e-016 1.04083e-017 0
-8.32667e-017 -2.42861e-016 0
1.249e-016 3.46945e-017 0
5.55112e-017 6.93889e-017 0
9.36751e-017 3.22659e-016 0
-9.02056e-017 3.22659e-016 0
-1.45717e-016 5.89806e-017 0
-1.97758e-016 2.70617e-016 0
5.89806e-017 2.56739e-016 0
7.28584e-017 3.46945e-018 0
-1.73472e-017 -1.38778e-016 0
-1.94289e-016 6.93889e-017 0
-3.1225e-017 7.63278e-017 0
1.59595e-016 -1.73472e-016 0
-1.42247e-016 3.81639e-017 0
4.85723e-017 -4.16334e-017 0
3.81639e-017 -3.1225e-017 0
-5.89806e-017 -7.28584e-017 0
5.89806e-017 3.81639e-017 0
-6.93889e-018 0 0
-1.17961e-016 2.08167e-017 0
-1.38778e-017 2.08167e-017 0
-1.07553e-016 -2.28983e-016 0
-3.46945e-017 -1.04083e-017 0
3.46945e-018 8.32667e-017 0
8.32667e-017 2.18575e-016 0
6.93889e-018 3.46945e-017 0
-1.14492e-016 -7.28584e-017 0
-1.04083e-016 1.97758e-016 0
-6.59195e-017 1.73472e-017 0
-1.73472e-017 1.31839e-016 0
-1.45717e-016 5.55112e-017 0
-1.04083e-016 1.73472e-016 0
-5.20417e-017 2.04697e-016 0
7.63278e-017 5.06539e-016 0
-3.46945e-017 2.84495e-016 0
1.52656e-016 2.498e-016 0
-1.73472e-017 4.85723e-017 0
2.18575e-016 1.07553e-016 0
1.2837e-016 1.35308e-016 0
7.28584e-017 -4.51028e-017 0
1.21431e-016 1.70003e-016 0
1.66533e-016 -7.63278e-017 0
0 1.17961e-016 0
-3.46945e-018 7.97973e-017 0
1.45717e-016 1.42247e-016 0
1.38778e-016 1.31839e-016 0
-4.51028e-017 -3.81639e-017 0
-5.89806e-017 -1.63064e-016 0
2.77556e-017 -3.46945e-017 0
2.77556e-017 -1.56125e-016 0
1.07553e-016 1.17961e-016 0
-3.46945e-018 -6.245e-017 0
6.245e-017 1.38778e-017 0
3.46945e-017 -1.66533e-016 0
-1.66533e-016 9.02056e-017 0
1.94289e-016 -1.21431e-016 0
8.32667e-017 5.55112e-017 0
-6.93889e-017 1.04083e-016 0
1.21431e-016 -7.28584e-017 0
1.14492e-016 -9.71445e-017 0
7.63278e-017 1.31839e-016 0
-6.245e-017 4.51028e-017 0
-3.46945e-018 9.36751e-017 0
4.51028e-017 -2.42861e-017 0
1.94289e-016 -6.93889e-018 0
1.03763e-006 -3.03628e-008 0
9.78605e-007 -3.91376e-008 0
9.0557e-007 -4.6845e-008 0
8.20497e-007 -5.32974e-008 0
7.25638e-007 -5.83498e-008 0
6.23448e-007 -6.19058e-008 0
5.16506e-007 -6.39192e-008 0
4.07421e-007 -6.43997e-008 0
2.98723e-007 -6.34259e-008 0
1.92721e-007 -6.11756e-008 0
9.13073e-008 -5.79515e-008 0
-4.20181e-009 -5.4129e-008 0
-9.3012e-008 -4.9974e-008 0
-1.74513e-007 -4.54813e-008 0
-2.47968e-007 -4.05195e-008 0
-3.12689e-007 -3.52248e-008 0
-3.68546e-007 -3.00706e-008 0
-4.16103e-007 -2.54178e-008 0
-4.56165e-007 -2.12492e-008 0
-4.89453e-007 -1.74835e-008 0
-5.16722e-007 -1.42058e-008 0
-5.3883e-007 -1.14552e-008 0
-5.56583e-007 -9.14077e-009 0
-5.70643e-007 -7.18079e-009 0
-5.81533e-007 -5.48348e-009 0
-5.89586e-007 -3.91965e-009 0
-5.94918e-007 -2.36127e-009 0
-5.97429e-007 -6.73543e-010 0
-5.96813e-007 1.2461e-009 0
-5.92602e-007 3.49453e-009 0
-5.84155e-007 6.1829e-009 0
-5.7074e-007 9.29715e-009 0
-5.51686e-007 1.27787e-008 0
-5.26309e-007 1.67356e-008 0
-4.93788e-007 2.12172e-008 0
-4.53493e-007 2.58988e-008 0
-4.05424e-007 3.03388e-008 0
-3.50093e-007 3.44256e-008 0
-2.88018e-007 3.8313e-008 0
-2.19555e-007 4.20308e-008 0
-1.452e-007 4.53369e-008 0
-6.59377e-008 4.7875e-008 0
1.67e-008 4.93536e-008 0
1.00777e-007 4.95988e-008 0
1.84134e-007 4.85298e-008 0
2.6453e-007 4.61295e-008 0
3.39734e-007 4.24308e-008 0
4.07611e-007 3.75128e-008 0
4.66199e-007 3.14977e-008 0
5.13774e-007 2.45475e-008 0
2.05791e-007 -1.13317e-007 0
-5.49061e-007 -9.14472e-008 0
-5.07368e-007 -1.00611e-007 0
-4.47457e-007 -1.0938e-007 0
-3.7511e-007 -1.17788e-007 0
-2.96671e-007 -1.25785e-007 0
-2.18669e-007 -1.33246e-007 0
-1.47531e-007 -1.40067e-007 0
-8.95884e-008 -1.46422e-007 0
-5.15675e-008 -1.53149e-007 0
-4.12003e-008 -1.6169e-007 0
-6.65423e-008 -1.72814e-007 0
-1.32969e-007 -1.84865e-007 0
-2.40122e-007 -1.94437e-007 0
-3.83032e-007 -1.99866e-007 0
-5.56249e-007 -2.0209e-007 0
-7.53954e-007 -2.00493e-007 0
-9.6595e-007 -1.91961e-007 0
-1.17883e-006 -1.76703e-007 0
-1.38224e-006 -1.5867e-007 0
-1.56909e-006 -1.38473e-007 0
-1.73049e-006 -1.13554e-007 0
-1.85642e-006 -8.43222e-008 0
-1.93952e-006 -5.30532e-008 0
-1.97488e-006 -2.00368e-008 0
-1.95889e-006 1.42923e-008 0
-1.89055e-006 4.81123e-008 0
-1.77144e-006 8.09493e-008 0
-1.6046e-006 1.12473e-007 0
-1.39565e-006 1.4035e-007 0
-1.15312e-006 1.64053e-007 0
-8.84682e-007 1.86004e-007 0
-5.96589e-007 2.0549e-007 0
-2.9864e-007 2.18452e-007 0
-4.07377e-009 2.24532e-007 0
2.76652e-007 2.26656e-007 0
5.37004e-007 2.2526e-007 0
7.70392e-007 2.19242e-007 0
9.70314e-007 2.10121e-007 0
1.13453e-006 2.01187e-007 0
1.26623e-006 1.94008e-007 0
1.37109e-006 1.87754e-007 0
1.45426e-006 1.80935e-007 0
1.51983e-006 1.72679e-007 0
1.57142e-006 1.62804e-007 0
1.6128e-006 1.51431e-007 0
1.64793e-006 1.38737e-007 0
1.68079e-006 1.24859e-007 0
1.71505e-006 1.09872e-007 0
2.14911e-006 9.95559e-008 0
1.38012e-006 -7.36823e-009 0
1.79363e-006 1.54453e-007 0
4.4064e-007 -1.22871e-007 0
3.7321e-007 -1.20318e-007 0