# vtk DataFile Version 4.0
SiwiRVisFile
ASCII
DATASET STRUCTURED_POINTS
DIMENSIONS 5 5 1
ORIGIN 0 0 0
SPACING 1 1 1
POINT_DATA 25

SCALARS flags double 1
LOOKUP_TABLE default
1
1
1
1
1
1
1
1
1
1
1
1
1
1
1
1
1
1
1
1
1
1
1
1
1

SCALARS density double 1
LOOKUP_TABLE default
0.984372
1.03645
0.999963
0.963058
1.01668
0.987918
1.03242
1.00017
0.968164
1.01055
1.02184
0.949773
0.999307
1.05003
0.97747
1.00311
0.985586
0.998499
1.01271
0.997624
0.974568
1.05917
0.998425
0.940725
1.03143

VECTORS velocity double
-0.00134381 0.00175893 0
-0.00220819 -0.00235055 0
0.00170501 -0.00094417 0
-0.00117564 0.002888 0
-0.00130946 -0.00182949 0
0.000126098 0.0035876 0
-0.00757306 -0.000614245 0
-0.0143229 -0.000292326 0
-0.00771997 0.000407369 0
0.000735539 -0.00183007 0
-0.00149856 0.00424123 0
-0.0137042 0.0183137 0
-0.0219359 -0.000627817 0
-0.0139198 -0.0194816 0
-0.00226819 -0.00426009 0
-0.00646911 0.0160839 0
-0.0111099 0.0185147 0
-0.00678679 -8.84081e-005 0
-0.0108378 -0.0185655 0
-0.00847954 -0.0151937 0
0.0217413 0.0155376 0
0.0460437 0.00508237 0
0.0483184 -0.000371374 0
0.0470368 -0.0031902 0
0.0166198 -0.0127572 0
