# vtk DataFile Version 4.0
SiwiRVisFile
ASCII
DATASET STRUCTURED_POINTS
DIMENSIONS 50 50 1
ORIGIN 0 0 0
SPACING 1 1 1
POINT_DATA 2500

SCALARS flags double 1
LOOKUP_TABLE default
1
1
1
1
1
1
1
1
1
1
1
1
1
1
1
1
1
1
1
1
1
1
1
1
1
1
1
1
1
1
1
1
1
1
1
1
1
1
1
1
1
1
1
1
1
1
1
1
1
1
1
1
1
1
1
1
1
1
1
1
1
1
1
1
1
1
1
1
1
1
1
1
1
1
1
1
1
1
1
1
1
1
1
1
1
1
1
1
1
1
1
1
1
1
1
1
1
1
1
1
1
1
1
1
1
1
1
1
1
1
1
1
1
1
1
1
1
1
1
1
1
1
1
1
1
1
1
1
1
1
1
1
1
1
1
1
1
1
1
1
1
1
1
1
1
1
1
1
1
1
1
1
1
1
1
1
1
1
1
1
1
1
1
1
1
1
1
1
1
1
1
1
1
1
1
1
1
1
1
1
1
1
1
1
1
1
1
1
1
1
1
1
1
1
1
1
1
1
1
1
1
1
1
1
1
1
1
1
1
1
1
1
1
1
1
1
1
1
1
1
1
1
1
1
1
1
1
1
1
1
1
1
1
1
1
1
1
1
1
1
1
1
1
1
1
1
1
1
1
1
1
1
1
1
1
1
1
1
1
1
1
1
1
1
1
1
1
1
1
1
1
1
1
1
1
1
1
1
1
1
1
1
1
1
1
1
1
1
1
1
1
1
1
1
1
1
1
1
1
1
1
1
1
1
1
1
1
1
1
1
1
1
1
1
1
1
1
1
1
1
1
1
1
1
1
1
1
1
1
1
1
1
1
1
1
1
1
1
1
1
1
1
1
1
1
1
1
1
1
1
1
1
1
1
1
1
1
1
1
1
1
1
1
1
1
1
1
1
1
1
1
1
1
1
1
1
1
1
1
1
1
1
1
1
1
1
1
1
1
1
1
1
1
1
1
1
1
1
1
1
1
1
1
1
1
1
1
1
1
1
1
1
1
1
1
1
1
1
1
1
1
1
1
1
1
1
1
1
1
1
1
1
1
1
1
1
1
1
1
1
1
1
1
1
1
1
1
1
1
1
1
1
1
1
1
1
1
1
1
1
1
1
1
1
1
1
1
1
1
1
1
1
1
1
1
1
1
1
1
1
1
1
1
1
1
1
1
1
1
1
1
1
1
1
1
1
1
1
1
1
1
1
1
1
1
1
1
1
1
1
1
1
1
1
1
1
1
1
1
1
1
1
1
1
1
1
1
1
1
1
1
1
1
1
1
1
1
1
1
1
1
1
1
1
1
1
1
1
1
1
1
1
1
1
1
1
1
1
1
1
1
1
1
1
1
1
1
1
1
1
1
1
1
1
1
1
1
1
1
1
1
1
1
1
1
1
1
1
1
1
1
1
1
1
1
1
1
1
1
1
1
1
1
1
1
1
1
1
1
1
1
1
1
1
1
1
1
1
1
1
1
1
1
1
1
1
1
1
1
1
1
1
1
1
1
1
1
1
1
1
1
1
1
1
1
1
1
1
1
1
1
1
1
1
1
1
1
1
1
1
1
1
1
1
1
1
1
1
1
1
1
1
1
1
1
1
1
1
1
1
1
1
1
1
1
1
1
1
1
1
1
1
1
1
1
1
1
1
1
1
1
1
1
1
1
1
1
1
1
1
1
1
1
1
1
1
1
1
1
1
1
1
1
1
1
1
1
1
1
1
1
1
1
1
1
1
1
1
1
1
1
1
1
1
1
1
1
1
1
1
1
1
1
1
1
1
1
1
1
1
1
1
1
1
1
1
1
1
1
1
1
1
1
1
1
1
1
1
1
1
1
1
1
1
1
1
1
1
1
1
1
1
1
1
1
1
1
1
1
1
1
1
1
1
1
1
1
1
1
1
1
1
1
1
1
1
1
1
1
1
1
1
1
1
1
1
1
1
1
1
1
1
1
1
1
1
1
1
1
1
1
1
1
1
1
1
1
1
1
1
1
1
1
1
1
1
1
1
1
1
1
1
1
1
1
1
1
1
1
1
1
1
1
1
1
1
1
1
1
1
1
1
1
1
1
1
1
1
1
1
1
1
1
1
1
1
1
1
1
1
1
1
1
1
1
1
1
1
1
1
1
1
1
1
1
1
1
1
1
1
1
1
1
1
1
1
1
1
1
1
1
1
1
1
1
1
1
1
1
1
1
1
1
1
1
1
1
1
1
1
1
1
1
1
1
1
1
1
1
1
1
1
1
1
1
1
1
1
1
1
1
1
1
1
1
1
1
1
1
1
1
1
1
1
1
1
1
1
1
1
1
1
1
1
1
1
1
1
1
1
1
1
1
1
1
1
1
1
1
1
1
1
1
1
1
1
1
1
1
1
1
1
1
1
1
1
1
1
1
1
1
1
1
1
1
1
1
1
1
1
1
1
1
1
1
1
1
1
1
1
1
1
1
1
1
1
1
1
1
1
1
1
1
1
1
1
1
1
1
1
1
1
1
1
1
1
1
1
1
1
1
1
1
1
1
1
1
1
1
1
1
1
1
1
1
1
1
1
1
1
1
1
1
1
1
1
1
1
1
1
1
1
1
1
1
1
1
1
1
1
1
1
1
1
1
1
1
1
1
1
1
1
1
1
1
1
1
1
1
1
1
1
1
1
1
1
1
1
1
1
1
1
1
1
1
1
1
1
1
1
1
1
1
1
1
1
1
1
1
1
1
1
1
1
1
1
1
1
1
1
1
1
1
1
1
1
1
1
1
1
1
1
1
1
1
1
1
1
1
1
1
1
1
1
1
1
1
1
1
1
1
1
1
1
1
1
1
1
1
1
1
1
1
1
1
1
1
1
1
1
1
1
1
1
1
1
1
1
1
1
1
1
1
1
1
1
1
1
1
1
1
1
1
1
1
1
1
1
1
1
1
1
1
1
1
1
1
1
1
1
1
1
1
1
1
1
1
1
1
1
1
1
1
1
1
1
1
1
1
1
1
1
1
1
1
1
1
1
1
1
1
1
1
1
1
1
1
1
1
1
1
1
1
1
1
1
1
1
1
1
1
1
1
1
1
1
1
1
1
1
1
1
1
1
1
1
1
1
1
1
1
1
1
1
1
1
1
1
1
1
1
1
1
1
1
1
1
1
1
1
1
1
1
1
1
1
1
1
1
1
1
1
1
1
1
1
1
1
1
1
1
1
1
1
1
1
1
1
1
1
1
1
1
1
1
1
1
1
1
1
1
1
1
1
1
1
1
1
1
1
1
1
1
1
1
1
1
1
1
1
1
1
1
1
1
1
1
1
1
1
1
1
1
1
1
1
1
1
1
1
1
1
1
1
1
1
1
1
1
1
1
1
1
1
1
1
1
1
1
1
1
1
1
1
1
1
1
1
1
1
1
1
1
1
1
1
1
1
1
1
1
1
1
1
1
1
1
1
1
1
1
1
1
1
1
1
1
1
1
1
1
1
1
1
1
1
1
1
1
1
1
1
1
1
1
1
1
1
1
1
1
1
1
1
1
1
1
1
1
1
1
1
1
1
1
1
1
1
1
1
1
1
1
1
1
1
1
1
1
1
1
1
1
1
1
1
1
1
1
1
1
1
1
1
1
1
1
1
1
1
1
1
1
1
1
1
1
1
1
1
1
1
1
1
1
1
1
1
1
1
1
1
1
1
1
1
1
1
1
1
1
1
1
1
1
1
1
1
1
1
1
1
1
1
1
1
1
1
1
1
1
1
1
1
1
1
1
1
1
1
1
1
1
1
1
1
1
1
1
1
1
1
1
1
1
1
1
1
1
1
1
1
1
1
1
1
1
1
1
1
1
1
1
1
1
1
1
1
1
1
1
1
1
1
1
1
1
1
1
1
1
1
1
1
1
1
1
1
1
1
1
1
1
1
1
1
1
1
1
1
1
1
1
1
1
1
1
1
1
1
1
1
1
1
1
1
1
1
1
1
1
1
1
1
1
1
1
1
1
1
1
1
1
1
1
1
1
1
1
1
1
1
1
1
1
1
1
1
1
1
1
1
1
1
1
1
1
1
1
1
1
1
1
1
1
1
1
1
1
1
1
1
1
1
1
1
1
1
1
1
1
1
1
1
1
1
1
1
1
1
1
1
1
1
1
1
1
1
1
1
1
1
1
1
1
1
1
1
1
1
1
1
1
1
1
1
1
1
1
1
1
1
1
1
1
1
1
1
1
1
1
1
1
1
1
1
1
1
1
1
1
1
1
1
1
1
1
1
1
1
1
1
1
1
1
1
1
1
1
1
1
1
1
1
1
1
1
1
1
1
1
1
1
1
1
1
1
1
1
1
1
1
1
1
1
1
1
1
1
1
1
1
1
1
1
1
1
1
1
1
1
1
1
1
1
1
1
1
1
1
1
1
1
1
1
1
1
1
1
1
1
1
1
1
1
1
1
1
1
1
1
1
1
1
1
1
1
1
1
1
1
1
1
1
1
1
1
1
1
1
1
1
1
1
1
1
1
1
1
1
1
1
1
1
1
1
1
1
1
1
1
1
1
1
1
1
1
1
1
1
1
1
1
1
1
1
1
1
1
1
1
1
1
1
1
1
1
1
1
1
1
1
1
1
1
1
1
1
1
1
1
1
1
1
1
1
1
1
1
1
1
1
1
1
1
1
1
1
1
1
1
1
1
1
1
1
1
1
1
1
1
1
1
1
1
1
1
1
1
1
1
1
1
1
1
1
1
1
1
1
1
1
1
1
1
1
1
1
1
1
1
1
1
1
1
1
1
1
1
1
1
1
1
1
1
1
1
1
1
1
1
1
1
1
1
1
1
1
1
1
1
1
1
1
1
1
1
1
1
1
1
1
1
1
1
1
1
1
1
1
1
1
1
1
1
1
1
1
1
1
1
1
1
1
1
1
1
1
1
1
1
1
1
1
1
1
1
1
1
1
1
1
1
1
1
1
1
1
1
1
1
1
1
1
1
1
1
1
1
1
1
1
1
1
1
1
1
1
1
1
1
1
1
1
1
1
1
1
1
1
1
1
1
1
1
1
1
1
1
1
1
1
1
1
1
1
1
1
1
1
1
1
1
1
1
1
1
1
1
1
1
1
1
1
1
1
1
1
1
1
1
1
1
1
1
1
1
1
1
1
1
1
1
1
1
1
1
1
1
1
1
1
1
1
1
1
1
1
1
1
1
1
1
1
1
1
1
1
1
1
1
1
1
1
1
1
1
1
1
1
1
1
1
1
1
1
1
1
1
1
1
1
1
1
1
1
1
1
1
1
1
1
1
1
1
1
1
1
1
1
1
1
1
1
1
1
1
1
1
1
1
1
1
1
1
1
1
1
1
1
1
1
1
1
1
1
1
1
1
1
1
1
1
1
1
1
1
1
1
1
1
1
1
1
1
1
1
1
1
1
1
1
1
1
1
1
1
1
1
1
1
1
1
1
1
1
1
1
1
1
1
1
1
1
1
1
1
1
1
1
1
1
1
1
1
1
1
1
1
1
1
1
1
1
1
1
1
1
1
1
1
1
1
1
1
1
1
1
1
1
1
1
1
1
1
1
1
1
1
1
1
1
1
1
1
1
1
1
1
1
1
1
1
1
1
1
1
1
1
1
1
1
1
1
1
1
1
1
1
1
1
1
1
1
1
1
1
1
1
1
1
1
1
1
1
1
1
1
1
1
1
1
1
1
1
1
1
1
1
1
1
1
1
1
1
1
1
1
1
1

SCALARS density double 1
LOOKUP_TABLE default
1
1
1
1
1
1
1
1
1
1
1
1
1
1
1
1
1
1
1
1
1
1
1
1
1
1
1
1
1
1
1
1
1
1
1
1
1
1
1
1
1
1
1
1
1
1
1
1
1
1
1
1
1
1
1
1
1
1
1
1
1
1
1
1
1
1
1
1
1
1
1
1
1
1
1
1
1
1
1
1
1
1
1
1
1
1
1
1
1
1
1
1
1
1
1
1
1
1
1
1
1
0.999999
1
1
1
1
1
1
1
1
1
1
1
1
1
1
1
1
1
1
1
1
1
1
1
1
1
1
1
1
1
1
1
1
1
1
1
1
1
1
1
1
1
1
1
1
1
1
1
1
1
1
1
1
1
1
1
1
1
1
1
1
1
1
1
1
1
1
1
1
1
1
1
1
1
1
1
1
1
1
1
1
1
1
1
1
1
1
1
1
1
1
1
1
1
1
1
1
1
1
0.999999
1
1
1
1
1
1
1
1
1
1
1
1
1
1
1
1
1
1
1
1
1
1
1
1
1
1
1
1
1
1
1
1
1
1
1
1
1
1
1
1
1
1
1
1
1
1
1
0.999999
1
1
0.999999
1
1
1
1
1
1
1
1
1
1
1
1
1
1
1
0.999999
0.999999
1
0.999999
0.999999
1
1
1
1
1
1
1
1
1
1
1
1
1
1
1
0.999999
0.999999
0.999999
0.999999
0.999999
1
1
1
1
1
1
0.999999
1
1
1
1
1
1
1
1
1
1
1
1
1
1
0.999999
1
1
0.999999
0.999999
1
1
0.999998
1
1
0.999999
0.999998
1
1
0.999997
0.999999
1
0.999999
0.999998
1
1
0.999999
0.999999
1
1
0.999999
0.999999
1
1
1
1
1
1
1
0.999999
1
0.999999
0.999999
1
0.999999
1
1
1
1
1
1
1
1
0.999999
0.999998
1
1
0.999998
0.999999
1.00001
1
0.999997
1.00001
1
0.999994
1
1.00001
0.999993
0.999997
1.00001
0.999995
0.999994
1
0.999999
0.999995
1
1
1
1
1
1
1
1
1
1
1
1
1
1
0.999999
1
0.999998
1
0.999999
1
1
1
1
1
1
1
1
1
0.999998
1
1
0.999998
0.999997
1.00001
1
0.999992
0.999998
1.00001
0.999998
0.999986
1.00001
1.00001
0.999988
0.999992
1.00001
1
0.999988
1
1.00001
0.999997
0.999996
1
1
0.999999
1
1
1
0.999998
0.999999
0.999999
0.999999
0.999999
0.999999
0.999999
1
0.999998
1
1
1
1
1
1
1
1
1
1
1
0.999998
1
1
0.999997
0.999996
1.00001
1
0.999979
1.00002
1.00002
0.999961
0.999992
1.00005
0.999979
0.999957
1.00004
1.00002
0.999953
1.00001
1.00004
0.99998
0.999984
1.00002
0.999999
0.999985
1
1
0.999994
0.999999
1
1
0.999999
1
1
1
1
1
1
1
1
0.999997
1
0.999999
1
0.999999
1
1
1
0.999999
0.999998
1
1
1
0.999998
1
1.00001
1
0.999987
1.00001
1.00001
0.999986
0.999993
1.00002
0.999996
0.999987
1.00001
1
0.999986
1
1.00001
0.99999
0.999994
1.00001
1
0.999993
1
1
1
1
1
1
1
1
1
1
1
1
0.999998
1
1
0.999993
0.999999
0.999998
0.999999
1
1
1
1
0.999997
0.999998
1.00001
0.999993
0.999983
1.00003
1.00001
0.999938
1.00001
1.00008
0.999934
0.999936
1.00011
1.00002
0.999876
1.00005
1.00011
0.999897
0.999944
1.00012
0.999989
0.999889
1.00006
1.00007
0.999927
0.999987
1.00006
0.99999
0.999974
1.00002
1.00001
0.999991
1
1
0.999998
0.999999
0.999998
1
1
1
1
1.00001
0.999992
0.999993
0.999997
0.999997
0.999999
0.999999
0.999997
0.999998
1
0.999992
1
1.00002
0.999987
0.99998
1.00003
1.00001
0.999957
0.999999
1.00004
0.999993
0.999965
1.00002
1.00003
0.999978
0.999976
1.00003
1.00002
0.999964
0.999984
1.00004
1
0.999958
1
1.00004
0.999986
0.99997
1.00002
1.00001
0.999981
1
1.00001
0.999995
1
1
1
1
1
1.00001
1
1.00001
0.999988
0.999985
0.999995
0.999996
0.999996
1
1
0.99999
1.00002
1.00001
0.999951
1.00003
1.00007
0.999912
0.999957
1.00014
0.999977
0.999872
1.00011
1.00008
0.99986
0.999997
1.00013
0.999942
0.999898
1.00009
1.00007
0.999878
0.999991
1.00014
0.999934
0.99989
1.00012
1.00003
0.999868
1.00004
1.00008
0.999935
0.999971
1.00005
0.999996
0.999982
1.00001
1
0.999999
1
1
1.00001
1.00002
1.00001
0.99998
0.999973
0.999983
0.999993
0.999988
0.999996
1.00002
0.999978
0.999975
1.00006
1.00001
0.999911
1.00003
1.00009
0.999945
0.999932
1.00007
1.00005
0.999915
0.999981
1.00008
0.999974
0.999917
1.00004
1.00005
0.999947
0.99996
1.00008
1.00003
0.999915
1.00002
1.00009
0.99995
0.999936
1.00007
1.00005
0.999917
0.999979
1.00008
0.99999
0.999941
1.00002
1.00002
0.999978
1
1.00001
1.00001
1.00002
1.00003
1.00002
0.999962
0.999964
0.999951
0.999976
0.999984
0.999944
1.00001
1.00004
0.999911
0.999967
1.00013
0.999959
0.999877
1.0001
1.00003
0.999869
1.00005
1.00007
0.999904
0.999989
1.00007
0.99999
0.999962
1.00003
1.00004
0.999966
0.999963
1.00003
1.00002
0.999939
0.999998
1.00009
0.999938
0.999943
1.00012
0.999972
0.999902
1.00011
1.00003
0.999884
1.00003
1.00008
0.999956
0.99999
1.00005
1.00002
1.00002
1.00005
1.00004
1.00004
0.999935
0.999973
0.999915
0.999919
1
0.999947
0.99988
1.00006
1.00008
0.999881
0.99995
1.00012
1
0.999903
1.00003
1.00009
0.999948
0.999927
1.00008
1.00002
0.999938
1.00002
1.00006
0.99998
0.999953
1.00004
1.00002
0.999935
0.999973
1.00006
0.999979
0.99991
1.00007
1.00006
0.999903
0.999974
1.00009
0.999991
0.999892
1.00005
1.0001
0.999926
0.999956
1.00011
1.00005
1
1.00008
1.00008
1.00002
1.00006
0.999897
0.999926
0.999929
0.999828
0.999892
1.00004
0.9999
0.999841
1.00007
1.00005
0.999892
1.00003
1.00005
0.999933
1.00003
1.00004
0.999956
1.00001
1.00002
0.999994
0.999979
0.999963
1.00004
0.999986
0.999944
1.00005
1.00002
0.999959
1.00003
1.00002
1.00001
0.99999
0.999976
1.00004
0.999974
0.999971
1.00005
0.99995
0.999975
1.00009
0.999949
0.99994
1.00014
1.00008
0.999963
1.0001
1.00015
1.00006
1.00007
1.00009
0.999877
0.999721
0.999882
0.999864
0.999676
0.999805
0.999995
0.999844
0.999817
1.00001
1.00002
0.999906
0.99994
1.00009
0.999999
0.999884
1.00005
1.00006
0.99991
0.999988
1.00008
1.00001
0.9999
1
1.00011
0.999903
0.99998
1.0001
1
0.999919
1
1.0001
0.999943
0.999932
1.00012
1.00001
0.999897
1.00005
1.00009
0.999963
0.999986
1.00016
1.00012
0.999999
1.00018
1.00029
1.00011
1.00011
1.00024
1.00011
0.999785
0.99951
0.999546
0.999753
0.999704
0.999518
0.999675
0.999829
0.999774
0.999816
0.999938
0.999941
0.999967
0.999984
0.999983
0.999992
0.99997
1.00002
1.00006
0.999921
1.00004
1.00004
0.99996
1.00005
0.999991
1
0.999956
1.00003
0.999961
0.999963
1.00008
0.999931
0.999974
1.00003
0.999988
1.00001
1.00002
1.00002
1.00004
1.00004
1.00017
1.00019
1.00014
1.00029
1.00041
1.00024
1.0002
1.00039
1.00039
1.00019
0.999303
0.999523
0.999362
0.999209
0.999461
0.999472
0.999346
0.999492
0.999679
0.999647
0.999693
0.999951
0.999979
0.999801
1.00002
1.00015
0.999896
0.999908
1.00007
1.00007
0.999848
1
1.00014
0.999922
0.999898
1.00009
1.00009
0.999861
0.99998
1.00015
0.999938
0.99991
1.00007
1.00011
0.99985
0.999951
1.00018
1.00001
1.00002
1.00027
1.00031
1.00025
1.00042
1.00055
1.00041
1.00042
1.00064
1.0005
1.00033
1.00057
0.998891
0.999074
0.999072
0.998823
0.998867
0.999075
0.999035
0.999028
0.99921
0.999394
0.999431
0.999605
0.999787
0.999889
0.999825
0.999946
1.00005
0.999946
0.99997
1.00001
0.999994
0.999979
0.999955
1.00003
1.0001
0.999919
0.999947
1.00005
1.00002
0.999989
0.99998
1.00004
1.00004
0.999925
1.00004
1.00016
1.00007
1.00016
1.00033
1.00046
1.00048
1.00064
1.00079
1.00075
1.00069
1.00089
1.00088
1.0007
1.00072
1.00084
0.99891
0.998175
0.998272
0.998635
0.998374
0.998376
0.99858
0.998582
0.998594
0.99891
0.999151
0.999077
0.999399
0.999789
0.999759
0.99975
1.00004
1.00006
0.999911
0.999907
1.00017
1.00002
0.999848
1.0001
1.00002
0.999967
0.999906
1.00012
1.00001
0.999816
1.00006
1.00009
0.999939
0.999937
1.00019
1.00021
1.00014
1.00047
1.00076
1.00067
1.00085
1.00111
1.00107
1.00105
1.00121
1.00123
1.00093
1.00129
1.00141
1.00077
0.99809
0.997874
0.99803
0.998249
0.997892
0.998012
0.99815
0.998216
0.998177
0.998225
0.998504
0.99882
0.998987
0.999196
0.999546
0.999782
0.99971
0.999927
1.00002
1.00006
0.999828
1.00002
1.00011
0.999835
1.00004
0.999951
1.00015
0.999909
0.999946
1.00017
0.999946
0.999948
1.00004
1.00024
1.00015
1.00032
1.00066
1.00079
1.00089
1.00114
1.00135
1.00135
1.00128
1.00133
1.0014
1.00151
1.00123
1.00141
1.00148
1.00143
0.997246
0.998001
0.997929
0.997642
0.997802
0.998165
0.997753
0.997777
0.997998
0.9979
0.997824
0.998204
0.998449
0.998588
0.998977
0.999435
0.999647
0.999569
1.00002
0.999927
0.999953
0.999961
1.00011
1.00001
0.999768
1.00021
1.00001
0.999888
1.00002
1.00003
1.00006
0.999941
1.00033
1.00029
1.00043
1.00078
1.0011
1.00119
1.00134
1.00164
1.00153
1.00141
1.00157
1.00164
1.00126
1.00156
1.00175
1.00155
1.00134
1.00204
0.997597
0.99783
0.997617
0.997813
0.998107
0.998083
0.997923
0.997952
0.997874
0.997827
0.997905
0.997539
0.997872
0.998317
0.998478
0.998703
0.999352
0.999672
0.999528
0.999946
1.00008
1.00001
0.999802
1.00009
1.00016
0.999847
0.999879
1.00014
1.00002
0.99988
0.999994
1.00039
1.00024
1.00043
1.00101
1.00119
1.00123
1.00158
1.00187
1.00151
1.00155
1.00158
1.00149
1.00155
1.00147
1.00148
1.00161
1.00189
1.0017
1.00173
0.997797
0.997529
0.997687
0.998453
0.997929
0.997789
0.998241
0.998594
0.997909
0.997942
0.998079
0.997803
0.997461
0.997841
0.998029
0.99828
0.998559
0.999335
0.999449
0.999593
0.999897
0.999875
0.999987
0.999936
1.00011
0.999894
1.00001
1.00003
1.00007
1.00007
1.00029
1.00042
1.00047
1.00111
1.0013
1.00145
1.00162
1.0019
1.00163
1.00141
1.00156
1.00167
1.00113
1.00142
1.00183
1.00186
1.00124
1.00187
1.00206
1.00179
0.997438
0.997779
0.99766
0.997621
0.99747
0.998133
0.997883
0.997964
0.998262
0.998187
0.99791
0.998106
0.99785
0.997215
0.997686
0.997884
0.99818
0.998275
0.99933
0.999499
0.999504
0.999919
1.00008
1.00002
0.999689
1.00026
1.00002
0.999861
1.00001
1.0004
1.00039
1.00041
1.00133
1.00143
1.00157
1.00173
1.00219
1.00167
1.00143
1.00175
1.00152
1.00145
1.00181
1.00193
1.00157
1.0022
1.00211
1.00204
1.0018
1.00226
0.997514
0.998226
0.997534
0.997208
0.997498
0.998153
0.997356
0.99742
0.998429
0.998332
0.998015
0.998118
0.998225
0.997872
0.99737
0.99767
0.997761
0.998246
0.998407
0.999264
0.999463
0.999655
0.999926
0.999891
1.00011
0.999864
1.00005
1.00003
1.00023
1.00038
1.0005
1.00123
1.00132
1.00164
1.00182
1.0021
1.00167
1.00142
1.00161
1.00172
1.0015
1.00142
1.00223
1.00234
1.00164
1.00208
1.00237
1.00227
1.00151
1.00215
0.998154
0.997685
0.997255
0.998254
0.997569
0.997386
0.997472
0.998111
0.997474
0.997711
0.9984
0.99823
0.997934
0.998305
0.997791
0.997323
0.997601
0.997778
0.997945
0.998239
0.999436
0.999428
0.999494
0.99995
1.00005
0.999943
0.999951
1.00038
1.00046
1.00034
1.00131
1.00164
1.0017
1.00186
1.00217
1.00185
1.00139
1.00182
1.00166
1.00141
1.00205
1.00237
1.00167
1.00213
1.00245
1.00222
1.0015
1.00247
1.00222
1.00177
0.997986
0.997655
0.997658
0.998476
0.997729
0.997485
0.997706
0.997748
0.997247
0.997315
0.998198
0.997904
0.99809
0.998
0.998388
0.997599
0.997324
0.997453
0.997804
0.998293
0.998367
0.999353
0.999644
0.999736
0.999921
0.999991
1.00019
1.00022
1.0004
1.00126
1.00135
1.00164
1.00203
1.00223
1.00203
1.0014
1.00182
1.0018
1.00189
1.00175
1.0024
1.00251
1.00219
1.00215
1.00232
1.00227
1.00172
1.00227
1.00236
1.00218
0.997294
0.998725
0.997922
0.997479
0.997573
0.998421
0.997514
0.997178
0.998055
0.99784
0.997027
0.997881
0.99833
0.998155
0.997744
0.998444
0.997717
0.997366
0.997659
0.997722
0.998123
0.998623
0.999522
0.999613
0.999597
1.00023
1.00029
1.00028
1.00099
1.00147
1.00178
1.00185
1.0022
1.00203
1.00137
1.002
1.00182
1.00157
1.00192
1.0028
1.00207
1.00167
1.00265
1.00247
1.00155
1.00233
1.00266
1.00216
1.00139
1.0028
0.997415
0.997817
0.997017
0.997555
0.997261
0.997835
0.997503
0.997566
0.997647
0.997572
0.997349
0.997485
0.997795
0.997903
0.998085
0.997953
0.998134
0.997454
0.997099
0.997415
0.997949
0.998348
0.99861
0.999501
0.999958
0.999913
1.00024
1.00104
1.00134
1.00158
1.00208
1.00255
1.00227
1.00164
1.00195
1.00193
1.00196
1.0021
1.00234
1.00243
1.00234
1.00229
1.00226
1.00235
1.00219
1.00252
1.00224
1.00288
1.00224
1.00243
0.998042
0.996863
0.996888
0.998704
0.99754
0.996936
0.998231
0.998563
0.997404
0.997255
0.998502
0.997539
0.997044
0.998098
0.998407
0.997938
0.997703
0.998331
0.99753
0.997306
0.997724
0.998013
0.998564
0.999149
0.999825
0.999954
1.00051
1.0011
1.00156
1.00185
1.0023
1.00225
1.00155
1.0021
1.00205
1.00156
1.00176
1.00277
1.00247
1.00145
1.00255
1.00262
1.00157
1.00169
1.003
1.00241
1.00128
1.00281
1.00301
1.00184
0.996754
0.997634
0.997337
0.997577
0.997214
0.997583
0.997376
0.997513
0.99761
0.997542
0.997443
0.997682
0.99755
0.997394
0.997709
0.998019
0.998258
0.997684
0.997904
0.997364
0.996975
0.997621
0.998323
0.998752
0.999245
1.00036
1.00095
1.00127
1.0019
1.00267
1.00245
1.00187
1.00219
1.00186
1.00191
1.00219
1.0025
1.00234
1.00221
1.00258
1.00241
1.00224
1.00257
1.00261
1.00231
1.00274
1.00252
1.00243
1.0022
1.00318
0.99618
0.998322
0.997137
0.996408
0.996825
0.998186
0.996662
0.996404
0.998101
0.997971
0.997036
0.997281
0.99837
0.997386
0.997209
0.998263
0.998288
0.997846
0.997655
0.99788
0.997291
0.997289
0.997934
0.998591
0.999413
1.00019
1.001
1.00167
1.00235
1.00248
1.002
1.00224
1.00218
1.00175
1.00167
1.00262
1.00266
1.00166
1.00246
1.00288
1.00208
1.00169
1.00331
1.00313
1.00179
1.00293
1.00349
1.00279
1.00169
1.00337
0.99779
0.997545
0.99668
0.998364
0.997236
0.997025
0.998124
0.997967
0.997338
0.997746
0.998488
0.997878
0.997238
0.998132
0.997846
0.997466
0.997906
0.998305
0.998133
0.997487
0.997754
0.997364
0.997276
0.998415
0.999447
1.00015
1.00106
1.00232
1.0025
1.00205
1.00237
1.00203
1.00175
1.00199
1.00246
1.00221
1.00181
1.00277
1.00225
1.00145
1.00222
1.00265
1.0019
1.00179
1.00302
1.00265
1.00153
1.00316
1.00263
1.00201
0.997651
0.996284
0.996551
0.998447
0.996998
0.996577
0.997741
0.997926
0.996427
0.996664
0.998109
0.997327
0.996784
0.997431
0.99796
0.997207
0.997359
0.998274
0.99806
0.99767
0.997316
0.99738
0.997425
0.997814
0.99905
1.00045
1.00177
1.00231
1.00242
1.00264
1.00244
1.00198
1.00168
1.00251
1.0029
1.00213
1.00244
1.00313
1.00272
1.00189
1.00321
1.0036
1.00223
1.00239
1.00333
1.00296
1.00184
1.00323
1.00371
1.0026
0.995919
0.998689
0.997539
0.996303
0.997073
0.998525
0.99676
0.996379
0.998537
0.997687
0.996827
0.997797
0.998721
0.997778
0.997129
0.998481
0.998273
0.9976
0.998203
0.998394
0.997851
0.997372
0.997726
0.998025
0.998863
1.00064
1.00175
1.00209
1.00247
1.00226
1.00172
1.00175
1.00241
1.00197
1.00146
1.00271
1.00239
1.00136
1.00202
1.00306
1.00239
1.00142
1.00367
1.00342
1.00149
1.00272
1.00393
1.00239
1.00135
1.00411
0.996862
0.998386
0.9967
0.996553
0.997044
0.998049
0.996741
0.996392
0.997753
0.998059
0.996893
0.997149
0.998275
0.997579
0.997361
0.997559
0.997734
0.997403
0.997705
0.998122
0.997637
0.99728
0.997254
0.997955
0.999199
1.00051
1.00172
1.00263
1.00282
1.00247
1.00192
1.00232
1.00269
1.00235
1.00251
1.00269
1.00255
1.00177
1.00268
1.0031
1.00213
1.00242
1.00351
1.00324
1.00227
1.00301
1.00332
1.00346
1.00214
1.00313
0.998881
0.995501
0.995971
0.999433
0.996829
0.995279
0.997664
0.998153
0.996444
0.996667
0.998562
0.997231
0.996558
0.997978
0.998219
0.997248
0.997263
0.998407
0.998219
0.99766
0.998288
0.998235
0.997586
0.998025
0.999271
1.00059
1.00184
1.00248
1.00194
1.0017
1.00234
1.00203
1.0016
1.00258
1.00294
1.00198
1.00189
1.00336
1.00295
1.0014
1.00332
1.0038
1.00198
1.00207
1.00486
1.00334
1.0008
1.00399
1.0049
1.00136
0.995667
0.996997
0.996619
0.997114
0.99659
0.996459
0.997211
0.99717
0.997186
0.996939
0.997303
0.99776
0.997574
0.997443
0.997912
0.998107
0.997997
0.997617
0.997749
0.997982
0.997843
0.997868
0.99789
0.998156
0.999207
1.00079
1.00201
1.00227
1.00218
1.00227
1.00224
1.00226
1.00241
1.00222
1.00214
1.00209
1.00243
1.00262
1.00245
1.00291
1.00318
1.00278
1.00296
1.003
1.00338
1.00342
1.00348
1.00331
1.00302
1.00484
0.995079
0.999418
0.997505
0.994181
0.996927
0.999529
0.996137
0.995557
0.998531
0.997503
0.995762
0.996981
0.998678
0.9971
0.996631
0.998406
0.998097
0.997151
0.997651
0.998267
0.997789
0.997629
0.998295
0.99866
0.999424
1.00084
1.00169
1.00194
1.00254
1.00244
1.00178
1.00228
1.00303
1.00224
1.00148
1.00315
1.00308
1.00134
1.00283
1.00443
1.00288
1.00129
1.00437
1.00422
1.00071
1.00319
1.00621
1.00282
1.0012
1.0049
0.997755
0.996171
0.995109
0.997924
0.996857
0.995637
0.997688
0.997119
0.996612
0.996485
0.997392
0.997552
0.997196
0.997791
0.997908
0.997622
0.997643
0.998124
0.997981
0.997587
0.997942
0.998419
0.998435
0.998839
0.999829
1.00081
1.00164
1.00197
1.00186
1.00207
1.00249
1.00239
1.00207
1.0023
1.00245
1.00228
1.00227
1.003
1.00274
1.00255
1.00345
1.00363
1.00305
1.00232
1.00471
1.00361
1.00214
1.00521
1.0047
1.00221
0.998476
0.992979
0.995345
0.999883
0.995761
0.994454
0.997735
0.998697
0.995534
0.996149
0.998528
0.997463
0.996179
0.99736
0.998278
0.997432
0.997385
0.998346
0.997955
0.997385
0.997934
0.998274
0.998228
0.998863
0.999944
1.00092
1.00187
1.00233
1.00198
1.00207
1.00269
1.0023
1.00161
1.00259
1.00293
1.00179
1.00236
1.00403
1.00317
1.00146
1.00379
1.00491
1.00164
1.00206
1.00571
1.00459
1.00069
1.00487
1.00735
1.00247
0.992788
0.999479
0.998071
0.993954
0.996912
0.998323
0.996416
0.99498
0.998479
0.997634
0.99604
0.99696
0.997902
0.997264
0.997081
0.99807
0.99814
0.997407
0.997868
0.998204
0.997674
0.997851
0.99878
0.999538
1.00027
1.00118
1.00171
1.00192
1.00235
1.00251
1.00199
1.002
1.00259
1.0021
1.00194
1.00282
1.00286
1.00223
1.00293
1.00422
1.00289
1.00152
1.00502
1.00415
1.00192
1.00326
1.00719
1.00266
1.00088
1.00853
0.995249
1.00003
0.995943
0.993061
0.996555
0.998411
0.995349
0.995403
0.99778
0.997439
0.996017
0.996882
0.997895
0.997193
0.997173
0.998037
0.998121
0.997708
0.998241
0.998088
0.9975
0.997906
0.998763
0.999193
1.00006
1.00136
1.00195
1.00197
1.00246
1.00269
1.00202
1.00179
1.00247
1.00203
1.00188
1.00311
1.00346
1.00222
1.00303
1.00436
1.00291
1.00192
1.00457
1.00526
1.00197
1.00355
1.0073
1.00449
1.00158
1.00518
0.999992
0.989565
0.993809
1.00139
0.996831
0.992638
0.998139
0.998723
0.995893
0.995944
0.998733
0.997617
0.99577
0.997455
0.998507
0.997335
0.997085
0.998366
0.998219
0.997265
0.997808
0.998491
0.998578
0.999423
1.00076
1.00178
1.00245
1.00251
1.00192
1.0021
1.00272
1.0019
1.00128
1.00256
1.00304
1.00182
1.00222
1.00439
1.00321
1.00146
1.00399
1.00476
1.00178
1.00155
1.00774
1.00444
0.999308
1.00676
1.01121
0.999384
0.993721
0.993466
0.994989
0.998147
0.995349
0.995055
0.997116
0.996809
0.99609
0.996952
0.997346
0.996539
0.996605
0.99754
0.997692
0.997645
0.997961
0.998391
0.997992
0.997779
0.997896
0.997725
0.998193
0.999685
1.00085
1.00166
1.00224
1.00278
1.00251
1.00201
1.00208
1.00203
1.00157
1.00223
1.00291
1.00274
1.00267
1.00377
1.00391
1.00261
1.00292
1.00427
1.00346
1.00245
1.005
1.00586
1.00233
1.00511
1.00757
1.00866
0.991587
1.00488
0.997634
0.989956
0.996859
1.00014
0.995002
0.994719
0.99879
0.998055
0.995249
0.996839
0.998384
0.996911
0.996557
0.998299
0.998472
0.997779
0.998162
0.998377
0.997384
0.997461
0.998474
0.999169
1.00046
1.00236
1.00309
1.00308
1.00326
1.00252
1.00108
1.00142
1.00225
1.00147
1.00135
1.0038
1.00389
1.00171
1.00316
1.0057
1.0021
1.00052
1.00612
1.00597
0.99911
1.00402
1.0126
1.00098
0.996571
1.02248

VECTORS velocity double
-7.00303e-007 1.90224e-008 0
-6.63249e-007 2.45913e-008 0
-6.17266e-007 2.95243e-008 0
-5.63533e-007 3.37065e-008 0
-5.03398e-007 3.70491e-008 0
-4.38334e-007 3.94951e-008 0
-3.6987e-007 4.10304e-008 0
-2.99511e-007 4.16991e-008 0
-2.28629e-007 4.16053e-008 0
-1.58407e-007 4.08748e-008 0
-8.98691e-008 3.95808e-008 0
-2.39934e-008 3.7719e-008 0
3.82522e-008 3.53017e-008 0
9.60503e-008 3.24734e-008 0
1.48906e-007 2.94603e-008 0
1.96628e-007 2.64069e-008 0
2.39165e-007 2.33526e-008 0
2.76553e-007 2.0352e-008 0
3.08959e-007 1.74973e-008 0
3.36669e-007 1.48399e-008 0
3.60018e-007 1.23905e-008 0
3.79362e-007 1.01556e-008 0
3.95049e-007 8.12343e-009 0
4.07391e-007 6.25819e-009 0
4.16629e-007 4.51596e-009 0
4.22928e-007 2.84452e-009 0
4.26357e-007 1.1841e-009 0
4.26888e-007 -5.20973e-010 0
4.24405e-007 -2.32121e-009 0
4.18711e-007 -4.26207e-009 0
4.09551e-007 -6.36801e-009 0
3.96643e-007 -8.64736e-009 0
3.79694e-007 -1.11061e-008 0
3.58432e-007 -1.37115e-008 0
3.32672e-007 -1.63907e-008 0
3.0233e-007 -1.91075e-008 0
2.67374e-007 -2.18417e-008 0
2.27879e-007 -2.44684e-008 0
1.84196e-007 -2.6779e-008 0
1.36968e-007 -2.86428e-008 0
8.69691e-008 -3.00577e-008 0
3.49676e-008 -3.10371e-008 0
-1.82359e-008 -3.15149e-008 0
-7.16927e-008 -3.13697e-008 0
-1.24266e-007 -3.04973e-008 0
-1.74685e-007 -2.88491e-008 0
-2.21642e-007 -2.64309e-008 0
-2.63871e-007 -2.3288e-008 0
-3.00204e-007 -1.94947e-008 0
-3.29622e-007 -1.51489e-008 0
-8.97659e-008 7.3175e-008 0
4.17169e-007 5.62736e-008 0
3.89122e-007 6.19586e-008 0
3.49059e-007 6.74213e-008 0
3.00485e-007 7.27143e-008 0
2.47387e-007 7.79255e-008 0
1.9426e-007 8.33114e-008 0
1.46274e-007 8.94027e-008 0
1.09281e-007 9.67936e-008 0
8.90615e-008 1.05491e-007 0
8.9846e-008 1.14492e-007 0
1.13444e-007 1.22512e-007 0
1.60046e-007 1.29132e-007 0
2.29259e-007 1.34366e-007 0
3.19321e-007 1.37281e-007 0
4.25997e-007 1.36703e-007 0
5.43906e-007 1.33068e-007 0
6.68381e-007 1.27378e-007 0
7.94669e-007 1.19123e-007 0
9.1662e-007 1.07428e-007 0
1.0277e-006 9.27239e-008 0
1.12217e-006 7.56174e-008 0
1.19489e-006 5.62299e-008 0
1.24144e-006 3.50425e-008 0
1.25853e-006 1.2702e-008 0
1.24419e-006 -1.02331e-008 0
1.19776e-006 -3.31084e-008 0
1.11994e-006 -5.53494e-008 0
1.01278e-006 -7.62746e-008 0
8.79616e-007 -9.53491e-008 0
7.24632e-007 -1.12387e-007 0
5.52797e-007 -1.26707e-007 0
3.701e-007 -1.37788e-007 0
1.82392e-007 -1.46393e-007 0
-5.60294e-009 -1.52938e-007 0
-1.88993e-007 -1.56327e-007 0
-3.61919e-007 -1.56027e-007 0
-5.19396e-007 -1.53101e-007 0
-6.58654e-007 -1.48379e-007 0
-7.78055e-007 -1.41759e-007 0
-8.76349e-007 -1.3359e-007 0
-9.53746e-007 -1.25103e-007 0
-1.01277e-006 -1.17273e-007 0
-1.05743e-006 -1.10086e-007 0
-1.09181e-006 -1.02958e-007 0
-1.11935e-006 -9.53822e-008 0
-1.14291e-006 -8.71424e-008 0
-1.16496e-006 -7.82069e-008 0
-1.18766e-006 -6.85987e-008 0
-1.46559e-006 -6.27152e-008 0
-9.00708e-007 -1.10264e-009 0
-1.21644e-006 -1.10852e-007 0
-3.09169e-007 7.47333e-008 0
-2.64154e-007 7.30927e-008 0
-2.19628e-007 7.29354e-008 0
-1.77616e-007 7.55036e-008 0
-1.37421e-007 8.34252e-008 0
-9.40426e-008 1.0037e-007 0
-3.94829e-008 1.28307e-007 0
3.20127e-008 1.6448e-007 0
1.20198e-007 2.03501e-007 0
2.22531e-007 2.43135e-007 0
3.3887e-007 2.82573e-007 0
4.65793e-007 3.14547e-007 0
5.90456e-007 3.30778e-007 0
7.01388e-007 3.35394e-007 0
7.99558e-007 3.35547e-007 0
8.86327e-007 3.24461e-007 0
9.53107e-007 2.96432e-007 0
9.95456e-007 2.61116e-007 0
1.01981e-006 2.23117e-007 0
1.02942e-006 1.75117e-007 0
1.02147e-006 1.17378e-007 0
9.96506e-007 5.64526e-008 0
9.57187e-007 -7.42625e-009 0
9.04082e-007 -7.37547e-008 0
8.38675e-007 -1.37731e-007 0
7.63356e-007 -1.98799e-007 0
6.78312e-007 -2.56704e-007 0
5.85672e-007 -3.04855e-007 0
4.90671e-007 -3.42879e-007 0
3.92241e-007 -3.77971e-007 0
2.85764e-007 -4.05468e-007 0
1.77012e-007 -4.15713e-007 0
7.53411e-008 -4.14383e-007 0
-2.03678e-008 -4.08164e-007 0
-1.11345e-007 -3.89841e-007 0
-1.86968e-007 -3.55287e-007 0
-2.35855e-007 -3.12781e-007 0
-2.56585e-007 -2.69574e-007 0
-2.51498e-007 -2.26523e-007 0
-2.21024e-007 -1.85983e-007 0
-1.68354e-007 -1.5349e-007 0
-1.0304e-007 -1.31921e-007 0
-3.70799e-008 -1.19397e-007 0
2.04736e-008 -1.12309e-007 0
6.49807e-008 -1.08061e-007 0
9.4788e-008 -1.05408e-007 0
-3.15862e-007 -8.04923e-009 0
-1.17524e-006 -1.13455e-007 0
-4.33213e-007 2.35441e-008 0
-4.26012e-007 3.87652e-007 0
-6.55038e-007 5.42875e-008 0
-6.84374e-007 4.33679e-008 0
-6.8017e-007 4.01057e-008 0
-6.57358e-007 4.53584e-008 0
-6.0182e-007 6.92579e-008 0
-4.94079e-007 1.20511e-007 0
-3.23135e-007 1.94835e-007 0
-1.00018e-007 2.76278e-007 0
1.52582e-007 3.57117e-007 0
4.19112e-007 4.38408e-007 0
6.75042e-007 4.98343e-007 0
8.63813e-007 5.05462e-007 0
9.41652e-007 4.79979e-007 0
9.23578e-007 4.5819e-007 0
8.21183e-007 4.06351e-007 0
5.98082e-007 3.00013e-007 0
2.62422e-007 2.11121e-007 0
-1.05838e-007 1.65919e-007 0
-4.68633e-007 9.60003e-008 0
-8.30325e-007 1.50571e-008 0
-1.14589e-006 -2.03812e-008 0
-1.35997e-006 -4.42151e-008 0
-1.46018e-006 -7.81671e-008 0
-1.44307e-006 -1.07653e-007 0
-1.30675e-006 -1.37316e-007 0
-1.05089e-006 -1.52587e-007 0
-6.84586e-007 -1.75781e-007 0
-2.60708e-007 -2.41135e-007 0
1.77529e-007 -2.92617e-007 0
6.34955e-007 -3.17948e-007 0
1.07227e-006 -3.86514e-007 0
1.40751e-006 -4.72351e-007 0
1.62998e-006 -5.04425e-007 0
1.77232e-006 -5.0831e-007 0
1.81854e-006 -5.17971e-007 0
1.74963e-006 -4.97091e-007 0
1.60579e-006 -4.25876e-007 0
1.44027e-006 -3.36047e-007 0
1.27502e-006 -2.49277e-007 0
1.12422e-006 -1.6443e-007 0
1.01015e-006 -8.9306e-008 0
9.44246e-007 -3.9786e-008 0
9.16742e-007 -1.98465e-008 0
9.10275e-007 -2.03987e-008 0
9.1345e-007 -3.09794e-008 0
9.31891e-007 -4.78883e-008 0
-6.53912e-007 1.40502e-007 0
-3.34762e-007 2.59883e-008 0
-1.83611e-006 -1.12528e-007 0
-1.59806e-006 1.24177e-008 0
-1.07079e-006 6.46544e-008 0
-1.18367e-007 2.24037e-007 0
-3.73238e-008 2.4633e-007 0
6.31153e-008 2.91044e-007 0
2.22614e-007 3.80233e-007 0
4.69968e-007 5.12759e-007 0
7.91555e-007 6.51436e-007 0
1.1415e-006 7.68118e-007 0
1.49569e-006 8.70538e-007 0
1.82388e-006 9.22591e-007 0
2.02109e-006 8.37659e-007 0
2.00968e-006 6.64936e-007 0
1.88153e-006 5.39614e-007 0
1.69942e-006 3.60623e-007 0
1.33421e-006 1.73094e-008 0
7.99984e-007 -2.22734e-007 0
3.4883e-007 -2.56696e-007 0
-9.56238e-009 -4.06777e-007 0
-4.59644e-007 -6.11244e-007 0
-8.76028e-007 -5.10527e-007 0
-1.05636e-006 -3.11803e-007 0
-1.12163e-006 -2.95185e-007 0
-1.15732e-006 -1.58373e-007 0
-1.00577e-006 1.74676e-007 0
-6.7488e-007 3.13525e-007 0
-3.36575e-007 3.36222e-007 0
8.28236e-008 5.44284e-007 0
6.92572e-007 6.54397e-007 0