# vtk DataFile Version 4.0
SiwiRVisFile
ASCII
DATASET STRUCTURED_POINTS
DIMENSIONS 5 5 1
ORIGIN 0 0 0
SPACING 1 1 1
POINT_DATA 25

SCALARS flags double 1
LOOKUP_TABLE default
1
1
1
1
1
1
1
1
1
1
1
1
1
1
1
1
1
1
1
1
1
1
1
1
1

SCALARS density double 1
LOOKUP_TABLE default
0.984523
1.03601
1.00027
0.964401
1.01671
0.986587
1.03073
1.00027
0.970224
1.01296
1.01963
0.947223
0.999261
1.05241
0.979851
1.0009
0.982796
0.997887
1.01474
0.999754
0.971474
1.05455
0.998742
0.944412
1.03368

VECTORS velocity double
-0.00154524 0.00106637 0
-0.00147383 -0.00214655 0
0.00304421 -0.000708189 0
-0.000578049 0.00293897 0
-0.00157619 -0.0011651 0
0.000341425 0.0030778 0
-0.0069875 -0.00179931 0
-0.0118704 -0.000192057 0
-0.00712939 0.00183196 0
0.000873496 -0.00160634 0
-0.0010655 0.00517798 0
-0.0130105 0.0168183 0
-0.0215894 -0.000702926 0
-0.0127103 -0.0181252 0
-0.00152787 -0.00502264 0
-0.00683931 0.016096 0
-0.0107459 0.0185117 0
-0.00577706 -0.000247627 0
-0.0105924 -0.0185199 0
-0.00867279 -0.0149463 0
0.0221013 0.0157754 0
0.0468925 0.00480412 0
0.047688 -0.000380092 0
0.0472755 -0.00329218 0
0.0173554 -0.0128323 0
