# vtk DataFile Version 4.0
SiwiRVisFile
ASCII
DATASET STRUCTURED_POINTS
DIMENSIONS 5 5 1
ORIGIN 0 0 0
SPACING 1 1 1
POINT_DATA 25

SCALARS flags double 1
LOOKUP_TABLE default
1
1
1
1
1
1
1
1
1
1
1
1
1
1
1
1
1
1
1
1
1
1
1
1
1

SCALARS density double 1
LOOKUP_TABLE default
0.98542
1.0354
1.00021
0.964495
1.01569
0.985927
1.03137
1.00055
0.970075
1.01348
1.01884
0.946199
0.999023
1.05349
0.980637
1.00135
0.983337
0.997606
1.01432
0.999451
0.972014
1.05521
0.99893
0.943319
1.03365

VECTORS velocity double
-0.00119557 0.00132936 0
-0.00168274 -0.00219798 0
0.00339368 -0.000574304 0
-0.000531886 0.00320038 0
-0.00123978 -0.00104424 0
0.000410993 0.00354562 0
-0.00705506 -0.0014275 0
-0.0125366 -0.0006066 0
-0.0075424 0.000629454 0
0.00123277 -0.00268525 0
-0.000842148 0.0047329 0
-0.0135036 0.0171298 0
-0.0221466 -5.92787e-005 0
-0.0133387 -0.0172184 0
-0.00185023 -0.00240545 0
-0.00774568 0.0170059 0
-0.0107956 0.0206051 0
-0.00516791 -0.000825849 0
-0.0126921 -0.0188328 0
-0.00597855 -0.0183269 0
0.0226096 0.0122669 0
0.0439519 0.00181286 0
0.0504606 0.000303423 0
0.0439362 -0.00305395 0
0.0280083 -0.0151408 0
