# vtk DataFile Version 4.0
SiwiRVisFile
ASCII
DATASET STRUCTURED_POINTS
DIMENSIONS 5 5 1
ORIGIN 0 0 0
SPACING 1 1 1
POINT_DATA 25

SCALARS flags double 1
LOOKUP_TABLE default
1
1
1
1
1
1
1
1
1
1
1
1
1
1
1
1
1
1
1
1
1
1
1
1
1

SCALARS density double 1
LOOKUP_TABLE default
0.98413
1.03544
0.999707
0.964249
1.01697
0.987709
1.03157
1.00012
0.969195
1.01143
1.02002
0.948532
0.999305
1.05157
0.97934
1.00157
0.9852
0.998533
1.01272
0.999131
0.973498
1.05875
0.998877
0.940216
1.03223

VECTORS velocity double
-0.00159373 0.0018795 0
-0.00251018 -0.00231868 0
0.00157646 -0.000839961 0
-0.00123704 0.00293048 0
-0.00135562 -0.00210644 0
0.00042156 0.00419874 0
-0.00711209 -0.0007079 0
-0.0130611 -0.000273554 0
-0.00729676 0.000545897 0
0.000814652 -0.00233405 0
-0.00170161 0.00478328 0
-0.0142986 0.0179535 0
-0.023175 -0.000261302 0
-0.0143613 -0.0190696 0
-0.0023455 -0.00461876 0
-0.00679493 0.0153557 0
-0.0111579 0.0186798 0
-0.00678784 -0.00012387 0
-0.0111559 -0.0186522 0
-0.00884934 -0.0142533 0
0.0220327 0.0152443 0
0.0462991 0.00529516 0
0.0478871 -0.000413709 0
0.0466801 -0.00366016 0
0.0167817 -0.0123622 0
