# vtk DataFile Version 4.0
SiwiRVisFile
ASCII
DATASET STRUCTURED_POINTS
DIMENSIONS 5 5 1
ORIGIN 0 0 0
SPACING 1 1 1
POINT_DATA 25

SCALARS flags double 1
LOOKUP_TABLE default
1
1
1
1
1
1
1
1
1
1
1
1
1
1
1
1
1
1
1
1
1
1
1
1
1

SCALARS density double 1
LOOKUP_TABLE default
0.985259
1.03489
1.00004
0.964805
1.01576
0.986626
1.03166
1.00068
0.969297
1.01302
1.01815
0.946253
0.999099
1.05378
0.981369
1.00079
0.985129
0.997692
1.01255
0.999871
0.97284
1.05634
0.998552
0.94269
1.03287

VECTORS velocity double
-0.00139488 0.00201353 0
-0.00174584 -0.00210076 0
0.00288624 -0.000767867 0
-0.000560868 0.00275274 0
-0.00120929 -0.00214052 0
-8.80049e-005 0.00420718 0
-0.00716652 -0.00128568 0
-0.0130892 -0.000149145 0
-0.00714747 0.00126009 0
0.000581643 -0.00242589 0
-0.00101414 0.00472312 0
-0.0138613 0.0177438 0
-0.0227308 -0.000390784 0
-0.0139502 -0.0185983 0
-0.00170997 -0.0049351 0
-0.00615967 0.0163491 0
-0.0106419 0.0182259 0
-0.00677004 -0.000277194 0
-0.0106284 -0.0183123 0
-0.00809812 -0.0153109 0
0.0219835 0.0157307 0
0.0462064 0.00514829 0
0.0469071 -0.000457976 0
0.0464913 -0.00341473 0
0.0169009 -0.0130249 0
