# vtk DataFile Version 4.0
SiwiRVisFile
ASCII
DATASET STRUCTURED_POINTS
DIMENSIONS 50 50 1
ORIGIN 0 0 0
SPACING 1 1 1
POINT_DATA 2500

SCALARS flags double 1
LOOKUP_TABLE default
1
1
1
1
1
1
1
1
1
1
1
1
1
1
1
1
1
1
1
1
1
1
1
1
1
1
1
1
1
1
1
1
1
1
1
1
1
1
1
1
1
1
1
1
1
1
1
1
1
1
1
1
1
1
1
1
1
1
1
1
1
1
1
1
1
1
1
1
1
1
1
1
1
1
1
1
1
1
1
1
1
1
1
1
1
1
1
1
1
1
1
1
1
1
1
1
1
1
1
1
1
1
1
1
1
1
1
1
1
1
1
1
1
1
1
1
1
1
1
1
1
1
1
1
1
1
1
1
1
1
1
1
1
1
1
1
1
1
1
1
1
1
1
1
1
1
1
1
1
1
1
1
1
1
1
1
1
1
1
1
1
1
1
1
1
1
1
1
1
1
1
1
1
1
1
1
1
1
1
1
1
1
1
1
1
1
1
1
1
1
1
1
1
1
1
1
1
1
1
1
1
1
1
1
1
1
1
1
1
1
1
1
1
1
1
1
1
1
1
1
1
1
1
1
1
1
1
1
1
1
1
1
1
1
1
1
1
1
1
1
1
1
1
1
1
1
1
1
1
1
1
1
1
1
1
1
1
1
1
1
1
1
1
1
1
1
1
1
1
1
1
1
1
1
1
1
1
1
1
1
1
1
1
1
1
1
1
1
1
1
1
1
1
1
1
1
1
1
1
1
1
1
1
1
1
1
1
1
1
1
1
1
1
1
1
1
1
1
1
1
1
1
1
1
1
1
1
1
1
1
1
1
1
1
1
1
1
1
1
1
1
1
1
1
1
1
1
1
1
1
1
1
1
1
1
1
1
1
1
1
1
1
1
1
1
1
1
1
1
1
1
1
1
1
1
1
1
1
1
1
1
1
1
1
1
1
1
1
1
1
1
1
1
1
1
1
1
1
1
1
1
1
1
1
1
1
1
1
1
1
1
1
1
1
1
1
1
1
1
1
1
1
1
1
1
1
1
1
1
1
1
1
1
1
1
1
1
1
1
1
1
1
1
1
1
1
1
1
1
1
1
1
1
1
1
1
1
1
1
1
1
1
1
1
1
1
1
1
1
1
1
1
1
1
1
1
1
1
1
1
1
1
1
1
1
1
1
1
1
1
1
1
1
1
1
1
1
1
1
1
1
1
1
1
1
1
1
1
1
1
1
1
1
1
1
1
1
1
1
1
1
1
1
1
1
1
1
1
1
1
1
1
1
1
1
1
1
1
1
1
1
1
1
1
1
1
1
1
1
1
1
1
1
1
1
1
1
1
1
1
1
1
1
1
1
1
1
1
1
1
1
1
1
1
1
1
1
1
1
1
1
1
1
1
1
1
1
1
1
1
1
1
1
1
1
1
1
1
1
1
1
1
1
1
1
1
1
1
1
1
1
1
1
1
1
1
1
1
1
1
1
1
1
1
1
1
1
1
1
1
1
1
1
1
1
1
1
1
1
1
1
1
1
1
1
1
1
1
1
1
1
1
1
1
1
1
1
1
1
1
1
1
1
1
1
1
1
1
1
1
1
1
1
1
1
1
1
1
1
1
1
1
1
1
1
1
1
1
1
1
1
1
1
1
1
1
1
1
1
1
1
1
1
1
1
1
1
1
1
1
1
1
1
1
1
1
1
1
1
1
1
1
1
1
1
1
1
1
1
1
1
1
1
1
1
1
1
1
1
1
1
1
1
1
1
1
1
1
1
1
1
1
1
1
1
1
1
1
1
1
1
1
1
1
1
1
1
1
1
1
1
1
1
1
1
1
1
1
1
1
1
1
1
1
1
1
1
1
1
1
1
1
1
1
1
1
1
1
1
1
1
1
1
1
1
1
1
1
1
1
1
1
1
1
1
1
1
1
1
1
1
1
1
1
1
1
1
1
1
1
1
1
1
1
1
1
1
1
1
1
1
1
1
1
1
1
1
1
1
1
1
1
1
1
1
1
1
1
1
1
1
1
1
1
1
1
1
1
1
1
1
1
1
1
1
1
1
1
1
1
1
1
1
1
1
1
1
1
1
1
1
1
1
1
1
1
1
1
1
1
1
1
1
1
1
1
1
1
1
1
1
1
1
1
1
1
1
1
1
1
1
1
1
1
1
1
1
1
1
1
1
1
1
1
1
1
1
1
1
1
1
1
1
1
1
1
1
1
1
1
1
1
1
1
1
1
1
1
1
1
1
1
1
1
1
1
1
1
1
1
1
1
1
1
1
1
1
1
1
1
1
1
1
1
1
1
1
1
1
1
1
1
1
1
1
1
1
1
1
1
1
1
1
1
1
1
1
1
1
1
1
1
1
1
1
1
1
1
1
1
1
1
1
1
1
1
1
1
1
1
1
1
1
1
1
1
1
1
1
1
1
1
1
1
1
1
1
1
1
1
1
1
1
1
1
1
1
1
1
1
1
1
1
1
1
1
1
1
1
1
1
1
1
1
1
1
1
1
1
1
1
1
1
1
1
1
1
1
1
1
1
1
1
1
1
1
1
1
1
1
1
1
1
1
1
1
1
1
1
1
1
1
1
1
1
1
1
1
1
1
1
1
1
1
1
1
1
1
1
1
1
1
1
1
1
1
1
1
1
1
1
1
1
1
1
1
1
1
1
1
1
1
1
1
1
1
1
1
1
1
1
1
1
1
1
1
1
1
1
1
1
1
1
1
1
1
1
1
1
1
1
1
1
1
1
1
1
1
1
1
1
1
1
1
1
1
1
1
1
1
1
1
1
1
1
1
1
1
1
1
1
1
1
1
1
1
1
1
1
1
1
1
1
1
1
1
1
1
1
1
1
1
1
1
1
1
1
1
1
1
1
1
1
1
1
1
1
1
1
1
1
1
1
1
1
1
1
1
1
1
1
1
1
1
1
1
1
1
1
1
1
1
1
1
1
1
1
1
1
1
1
1
1
1
1
1
1
1
1
1
1
1
1
1
1
1
1
1
1
1
1
1
1
1
1
1
1
1
1
1
1
1
1
1
1
1
1
1
1
1
1
1
1
1
1
1
1
1
1
1
1
1
1
1
1
1
1
1
1
1
1
1
1
1
1
1
1
1
1
1
1
1
1
1
1
1
1
1
1
1
1
1
1
1
1
1
1
1
1
1
1
1
1
1
1
1
1
1
1
1
1
1
1
1
1
1
1
1
1
1
1
1
1
1
1
1
1
1
1
1
1
1
1
1
1
1
1
1
1
1
1
1
1
1
1
1
1
1
1
1
1
1
1
1
1
1
1
1
1
1
1
1
1
1
1
1
1
1
1
1
1
1
1
1
1
1
1
1
1
1
1
1
1
1
1
1
1
1
1
1
1
1
1
1
1
1
1
1
1
1
1
1
1
1
1
1
1
1
1
1
1
1
1
1
1
1
1
1
1
1
1
1
1
1
1
1
1
1
1
1
1
1
1
1
1
1
1
1
1
1
1
1
1
1
1
1
1
1
1
1
1
1
1
1
1
1
1
1
1
1
1
1
1
1
1
1
1
1
1
1
1
1
1
1
1
1
1
1
1
1
1
1
1
1
1
1
1
1
1
1
1
1
1
1
1
1
1
1
1
1
1
1
1
1
1
1
1
1
1
1
1
1
1
1
1
1
1
1
1
1
1
1
1
1
1
1
1
1
1
1
1
1
1
1
1
1
1
1
1
1
1
1
1
1
1
1
1
1
1
1
1
1
1
1
1
1
1
1
1
1
1
1
1
1
1
1
1
1
1
1
1
1
1
1
1
1
1
1
1
1
1
1
1
1
1
1
1
1
1
1
1
1
1
1
1
1
1
1
1
1
1
1
1
1
1
1
1
1
1
1
1
1
1
1
1
1
1
1
1
1
1
1
1
1
1
1
1
1
1
1
1
1
1
1
1
1
1
1
1
1
1
1
1
1
1
1
1
1
1
1
1
1
1
1
1
1
1
1
1
1
1
1
1
1
1
1
1
1
1
1
1
1
1
1
1
1
1
1
1
1
1
1
1
1
1
1
1
1
1
1
1
1
1
1
1
1
1
1
1
1
1
1
1
1
1
1
1
1
1
1
1
1
1
1
1
1
1
1
1
1
1
1
1
1
1
1
1
1
1
1
1
1
1
1
1
1
1
1
1
1
1
1
1
1
1
1
1
1
1
1
1
1
1
1
1
1
1
1
1
1
1
1
1
1
1
1
1
1
1
1
1
1
1
1
1
1
1
1
1
1
1
1
1
1
1
1
1
1
1
1
1
1
1
1
1
1
1
1
1
1
1
1
1
1
1
1
1
1
1
1
1
1
1
1
1
1
1
1
1
1
1
1
1
1
1
1
1
1
1
1
1
1
1
1
1
1
1
1
1
1
1
1
1
1
1
1
1
1
1
1
1
1
1
1
1
1
1
1
1
1
1
1
1
1
1
1
1
1
1
1
1
1
1
1
1
1
1
1
1
1
1
1
1
1
1
1
1
1
1
1
1
1
1
1
1
1
1
1
1
1
1
1
1
1
1
1
1
1
1
1
1
1
1
1
1
1
1
1
1
1
1
1
1
1
1
1
1
1
1
1
1
1
1
1
1
1
1
1
1
1
1
1
1
1
1
1
1
1
1
1
1
1
1
1
1
1
1
1
1
1
1
1
1
1
1
1
1
1
1
1
1
1
1
1
1
1
1
1
1
1
1
1
1
1
1
1
1
1
1
1
1
1
1
1
1
1
1
1
1
1
1
1
1
1
1
1
1
1
1
1
1
1
1
1
1
1
1
1
1
1
1
1
1
1
1
1
1
1
1
1
1
1
1
1
1
1
1
1
1
1
1
1
1
1
1
1
1
1
1
1
1
1
1
1
1
1
1
1
1
1
1
1
1
1
1
1
1
1
1
1
1
1
1
1
1
1
1
1
1
1
1
1
1
1
1
1
1
1
1
1
1
1
1
1
1
1
1
1
1
1
1
1
1
1
1
1
1
1
1
1
1
1
1
1
1
1
1
1
1
1
1
1
1
1
1
1
1
1
1
1
1
1
1
1
1
1
1
1
1
1
1
1
1
1
1
1
1
1
1
1
1
1
1
1
1
1
1
1
1
1
1
1
1
1
1
1
1
1
1
1
1
1
1
1
1
1
1
1
1
1
1
1
1
1
1
1
1
1
1
1
1
1
1
1
1
1
1
1
1
1
1
1
1
1
1
1
1
1
1
1
1
1
1
1
1
1
1
1
1
1
1
1
1
1
1
1
1
1
1
1
1
1
1
1
1
1
1
1
1
1
1
1
1
1
1
1
1
1
1
1
1
1
1
1
1
1
1
1
1
1
1
1
1
1
1
1
1
1
1
1
1
1
1
1
1
1
1
1
1
1
1
1
1
1
1
1
1
1
1
1
1
1
1
1
1
1
1
1
1
1
1
1
1
1
1
1
1
1
1
1
1
1
1
1
1
1
1
1
1
1
1
1
1
1
1
1
1
1
1
1
1
1
1
1
1
1
1
1
1
1
1
1
1
1
1
1
1
1
1
1
1
1
1
1
1
1
1
1
1
1
1
1
1
1
1
1
1
1
1
1
1
1
1
1
1
1
1
1
1
1
1
1
1
1
1
1
1
1
1
1
1
1
1
1
1
1
1
1
1
1
1
1
1
1
1
1
1
1
1
1
1
1
1
1
1
1
1
1
1
1
1
1
1
1
1
1
1
1
1
1

SCALARS density double 1
LOOKUP_TABLE default
1
1
0.999999
1
1
1
1
1
0.999999
0.999999
1
0.999999
0.999997
1
1
0.999996
0.999999
1.00001
0.999998
0.999995
1
1
0.999995
1
1
0.999996
0.999999
1
0.999998
0.999996
1
1
0.999995
1
1
0.999998
0.999998
1
1
0.999998
1
1
1
1
1
1
1
0.999999
1
0.999999
1
1
1
1
1
1
1
0.999998
0.999999
1
0.999999
0.999995
1
1
0.999994
0.999998
1.00001
0.999998
0.999993
1.00001
1
0.999994
0.999999
1
1
0.999999
0.999997
1
1.00001
0.999996
0.999994
1.00001
1
0.999991
1
1.00001
0.999995
0.999996
1
1
0.999997
1
1
0.999999
0.999999
1
1
1
1
1
1
1
1
1
1
1
0.999998
0.999999
1
1
0.999995
1
1.00001
0.999992
0.999996
1.00001
0.999997
0.999985
1.00001
1.00001
0.99998
0.999998
1.00002
0.99999
0.999981
1.00002
1.00001
0.999978
1
1.00002
0.99999
0.999989
1.00002
1
0.999987
1
1.00001
0.999993
0.999996
1.00001
1
0.999997
1
1
0.999999
0.999999
1
1
0.999999
1
0.999999
1
0.999999
1
1
0.999998
0.999998
1
1
0.999993
1
1.00001
0.999989
0.999995
1.00002
0.999996
0.999986
1.00001
1.00001
0.999987
1
1.00001
0.999992
1
1.00001
0.999991
0.999999
1.00001
0.999989
0.999995
1.00001
0.999993
0.999987
1.00002
1.00001
0.999985
1
1.00001
0.999992
0.999996
1.00001
1
0.999996
1
1
0.999999
1
1
1
0.999999
0.999999
0.999999
1
1
0.999998
0.999998
1
1
0.999993
1
1.00001
0.999988
0.999991
1.00002
1
0.999971
1.00002
1.00003
0.999967
0.999979
1.00005
1
0.999944
1.00002
1.00005
0.999953
0.999975
1.00006
0.999999
0.999949
1.00002
1.00003
0.99997
0.999983
1.00003
1
0.999978
1.00001
1.00001
0.999989
0.999995
1.00001
0.999999
0.999995
1
1
0.999999
1
1
1
0.999997
0.999998
1
0.999998
0.999998
1
1
0.999991
1
1.00001
0.999984
0.999995
1.00002
0.999988
0.999986
1.00003
0.999995
0.999973
1.00003
1.00001
0.999962
1
1.00004
0.999981
0.999971
1.00003
1.00002
0.999964
1
1.00004
0.999985
0.999974
1.00003
1
0.999971
1.00001
1.00001
0.999978
1
1.00002
0.99999
0.999995
1.00001
0.999999
0.999996
1
1
1
1
1
0.999994
0.999997
0.999995
0.999996
1
1
0.999992
1
1.00001
0.999989
0.999984
1.00002
1.00001
0.999964
1
1.00005
0.999983
0.999953
1.00004
1.00003
0.999942
0.999989
1.00006
0.999976
0.999947
1.00005
1.00003
0.99994
1.00001
1.00006
0.999972
0.999965
1.00004
1.00002
0.999959
0.999997
1.00004
0.999993
0.999977
1.00001
1.00001
0.999988
0.999998
1.00001
1
0.999997
1
1
1
1
0.999991
0.99999
0.999991
0.999998
0.999998
0.999987
1.00001
1.00001
0.999977
0.999999
1.00003
0.999969
0.999979
1.00006
0.999984
0.999939
1.00005
1.00003
0.999938
0.999998
1.00006
0.999984
0.99996
1.00003
1.00003
0.999968
0.999971
1.00004
1.00002
0.999944
1
1.00006
0.999965
0.999952
1.00006
1.00001
0.999939
1.00002
1.00003
0.999965
0.999999
1.00002
0.999988
0.999994
1.00001
1
1
1.00001
1.00001
1.00001
0.99999
0.999988
0.999992
0.999991
0.999989
0.999993
1.00001
0.999998
0.999978
1.00001
1.00003
0.999981
0.999972
1.00003
1.00002
0.99996
0.999994
1.00004
0.999983
0.999973
1.00003
1.00001
0.999972
1.00001
1.00002
0.999982
0.999989
1.00003
0.999993
0.999968
1.00002
1.00002
0.999964
1
1.00003
0.999983
0.999974
1.00002
1.00002
0.999977
0.999989
1.00002
1
0.999993
1
1.00001
1.00001
1.00001
1.00001
1.00001
0.999983
0.999982
0.999983
0.999971
0.999992
1.00001
0.999957
0.999993
1.00006
0.999959
0.999945
1.00008
1.00001
0.999913
1.00003
1.00005
0.999955
0.999977
1.00004
1
0.99996
0.999999
1.00003
0.999984
0.999978
1.00002
1.00002
0.999973
1
1.00004
0.999996
0.999958
1.00002
1.00004
0.999948
0.99997
1.00008
0.999989
0.999919
1.00005
1.00004
0.999945
1.00001
1.00004
0.999994
1.00001
1.00003
1.00002
1.00002
1.00002
0.999972
0.999964
0.999968
0.999962
0.999965
0.99999
0.999967
0.999962
1.00001
1.00001
0.999964
0.999981
1.00003
0.999994
0.999969
1.00002
1.00001
0.999976
1.00001
1
0.999987
1.00001
1
0.99999
0.999994
1.00001
1.00001
0.999997
0.999995
1.00001
1
0.999989
1.00002
0.999992
0.999982
1.00003
0.999996
0.999976
1.00002
1.00002
0.999985
0.999993
1.00003
1.00003
1.00001
1.00003
1.00004
1.00003
1.00004
1.00002
0.999955
0.999923
0.99995
0.999973
0.999903
0.999919
1.00004
0.999956
0.999881
1.00004
1.00004
0.999922
0.999992
1.00004
0.999994
0.999967
1.00001
1.00004
0.999976
0.999972
1.00005
1.00001
0.99995
1.00003
1.00006
0.999946
0.999969
1.00005
0.999992
0.999948
1.00002
1.00003
0.999958
0.999989
1.00003
1
0.999955
1
1.00007
0.999957
0.999958
1.00011
1.00004
0.999964
1.00008
1.00009
1.00003
1.00005
1.00007
1.00004
0.999912
0.999885
0.999883
0.999912
0.999927
0.999863
0.999894
0.999968
0.999955
0.999919
0.999975
1.00001
0.999974
0.999992
1.00001
0.999991
1
0.999988
1
0.999997
0.999986
1.00001
0.999999
0.999993
0.999995
1
1.00001
1
0.999982
1.00001
1
0.999992
1.00001
1
1
0.99998
1.00001
1.00002
0.999975
1.00003
1.00008
1.00003
1.00003
1.0001
1.00011
1.00006
1.00008
1.0001
1.0001
1.00008
0.999781
0.999842
0.999802
0.999717
0.99987
0.999864
0.999736
0.999841
0.999939
0.999862
0.999891
0.999979
0.99999
0.999939
0.999967
1.00006
0.999961
0.999938
1.00007
1.00003
0.999917
0.999997
1.00007
0.999966
0.999932
1.00007
1.00004
0.999929
0.999999
1.00008
0.99998
0.999926
1.00005
1.00004
0.999936
1.00002
1.00006
1
1.00001
1.00009
1.00012
1.00005
1.00014
1.00023
1.00011
1.00011
1.00024
1.00016
1.00013
1.00018
0.999646
0.99966
0.999692
0.99961
0.99958
0.99966
0.999728
0.999674
0.999698
0.999825
0.999825
0.999847
0.999931
0.999957
0.999953
0.999961
1.00003
1.00002
0.999941
1.00003
1.00004
0.99998
0.99998
1
1.00003
0.999966
0.999989
1.00002
1.00002
0.99996
0.999966
1.00006
0.999977
0.999963
1.00003
1.00004
1.00002
1.00005
1.00014
1.00014
1.00013
1.00026
1.00028
1.00021
1.00028
1.00035
1.0003
1.00024
1.00028
1.00028
0.999566
0.999276
0.999334
0.999464
0.999345
0.999326
0.99949
0.999455
0.999466
0.999606
0.999688
0.999693
0.999764
0.999946
0.999909
0.99986
1.00003
1.00001
0.999943
0.999964
1.00006
0.999995
0.999924
1.00004
1.00004
0.999967
0.999945
1.00007
1.00001
0.999936
1.00003
1.00004
0.999983
0.999955
1.00011
1.00008
1.00003
1.00019
1.00026
1.00026
1.00032
1.00043
1.00044
1.00039
1.00053
1.00051
1.0004
1.00052
1.00057
1.00033
0.999095
0.998972
0.998993
0.998942
0.999022
0.999
0.999005
0.999118
0.999185
0.9992
0.999347
0.999496
0.999555
0.999628
0.999802
0.999926
0.999846
0.999935
1.00001
0.999994
0.999937
0.999983
1.00008
0.999968
0.99995
1.00004
1.00004
0.999916
1.00001
1.00005
0.999998
0.999978
1.00004
1.00014
1.00005
1.00015
1.00031
1.00036
1.0004
1.00052
1.00065
1.00062
1.00066
1.00077
1.00074
1.00071
1.0008
1.00075
1.00075
1.00069
0.998461
0.998693
0.998647
0.998371
0.998592
0.998613
0.99855
0.99866
0.99877
0.998801
0.998871
0.999091
0.999253
0.99934
0.999549
0.999702
0.999819
0.999838
0.999952
1.00002
0.999939
0.999983
1.00006
0.999966
0.999953
1.00003
1.00003
0.99994
0.999985
1.00006
0.99997
1.00002
1.00013
1.00013
1.00024
1.00035
1.00052
1.00059
1.0007
1.00086
1.0009
1.00091
1.00097
1.00105
1.00099
1.001
1.00119
1.00097
1.00093
1.00113
0.998253
0.998177
0.998106
0.998171
0.998285
0.998171
0.998265
0.998255
0.99829
0.998423
0.998542
0.99852
0.998723
0.999055
0.999145
0.999274
0.999617
0.999789
0.99976
0.999835
1.00006
0.99998
0.999844
1.00007
1.00005
0.999949
0.999908
1.00013
1.00003
0.999903
1.00013
1.00019
1.00015
1.00028
1.00057
1.00067
1.0007
1.00096
1.00112
1.00106
1.00111
1.00122
1.00124
1.0012
1.00128
1.00122
1.00125
1.00134
1.00133
1.00122
0.997961
0.997724
0.997949
0.998118
0.998005
0.997923
0.998141
0.998158
0.998025
0.998033
0.998172
0.998217
0.998218
0.998451
0.99871
0.998918
0.999094
0.999488
0.999604
0.999764
0.999874
0.999965
0.99999
0.999905
1.00006
0.999929
1.00007
0.999996
1.00001
1.0001
1.00016
1.00031
1.00038
1.0007
1.00082
1.00096
1.00116
1.0013
1.00127
1.00129
1.00139
1.00138
1.00128
1.0013
1.00146
1.00145
1.00132
1.00144
1.00166
1.00146
0.997598
0.997794
0.998109
0.997864
0.998065
0.998204
0.998079
0.998053
0.998214
0.998062
0.997952
0.998099
0.998079
0.997925
0.998236
0.998556
0.998693
0.998841
0.999478
0.999583
0.999618
0.999843
1.00003
0.999997
0.999815
1.00016
0.999993
0.999938
1.00009
1.00031
1.00032
1.00034
1.0009
1.00099
1.00105
1.00129
1.00153
1.00137
1.00132
1.00146
1.00139
1.00126
1.00141
1.00146
1.00131
1.00144
1.00164
1.00142
1.00158
1.00177
0.997713
0.997968
0.998042
0.997743
0.998183
0.998252
0.998105
0.998115
0.998356
0.998305
0.998095
0.99802
0.998085
0.997991
0.997839
0.998036
0.998257
0.998558
0.998725
0.999202
0.999477
0.999655
0.999781
0.999931
1.00004
0.999929
1.00004
1.00014
1.00027
1.00035
1.00059
1.00099
1.00106
1.00127
1.00145
1.00159
1.00143
1.00136
1.00147
1.00141
1.00128
1.0013
1.00148
1.00155
1.00142
1.00146
1.00178
1.00163
1.00156
1.00171
0.997979
0.997594
0.997829
0.99796
0.997924
0.997713
0.998077
0.998297
0.998015
0.998219
0.998418
0.998227
0.99804
0.998148
0.997914
0.997693
0.997939
0.99819
0.998275
0.998639
0.999212
0.999395
0.999542
0.9998
1.00012
0.999853
1.00009
1.00036
1.00043
1.00058
1.001
1.00131
1.00132
1.0015
1.00173
1.00153
1.00136
1.0015
1.00141
1.00127
1.00149
1.00171
1.00145
1.00162
1.00192
1.00181
1.00163
1.00181
1.00202
1.00166
0.997957
0.997568
0.997871
0.997818
0.997737
0.997686
0.997885
0.997976
0.997903
0.998062
0.998342
0.998347
0.998315
0.998144
0.998231
0.997954
0.997791
0.997741
0.998148
0.998233
0.998545
0.999096
0.999402
0.999709
0.999633
1.00024
1.0002
1.00039
1.00066
1.00107
1.00133
1.00132
1.00169
1.00168
1.00152
1.00134
1.00151
1.0014
1.00139
1.00147
1.00168
1.00178
1.00175
1.00183
1.00187
1.00194
1.00185
1.00179
1.00205
1.00184
0.997815
0.998069
0.998087
0.997598
0.99783
0.998085
0.997598
0.997556
0.997935
0.998034
0.99774
0.998174
0.998462
0.9983
0.998126
0.998343
0.997845
0.9977
0.997716
0.998017
0.998031
0.998547
0.999164
0.999226
0.999783
1.00003
1.00056
1.00057
1.00104
1.00152
1.00146
1.00171
1.00176
1.00169
1.00133
1.00156
1.0015
1.00136
1.00161
1.002
1.00173
1.00176
1.00208
1.00211
1.00163
1.00187
1.00212
1.00176
1.00168
1.002
0.998279
0.998004
0.998061
0.998058
0.997994
0.997965
0.997875
0.997863
0.997679
0.997787
0.997741
0.997828
0.998089
0.998289
0.998311
0.998201
0.998299
0.997981
0.997709
0.997608
0.998086
0.998088
0.998444
0.999267
0.99968
1.00005
1.00037
1.00115
1.00146
1.00138
1.00181
1.00184
1.00161
1.00139
1.00156
1.00152
1.00151
1.00175
1.00195
1.00195
1.00194
1.00211
1.00186
1.00192
1.00195
1.00193
1.0018
1.00194
1.00194
1.00167
0.998397
0.997681
0.998009
0.99844
0.997977
0.9977
0.998165
0.998203
0.997576
0.997627
0.998041
0.997715
0.997596
0.998067
0.998437
0.998183
0.998249
0.998367
0.997853
0.997741
0.997641
0.997988
0.998162
0.99878
0.999544
1.00002
1.00076
1.00131
1.0015
1.0018
1.00179
1.00175
1.0014
1.00155
1.00168
1.00145
1.00173
1.00215
1.00204
1.00175
1.0021
1.00223
1.0017
1.00177
1.00217
1.00203
1.00158
1.00201
1.00226
1.0017
0.997673
0.997781
0.997901
0.99755
0.997661
0.998023
0.997739
0.997872
0.99793
0.997962
0.997614
0.997802
0.997704
0.997717
0.99781
0.998322
0.998209
0.9981
0.998338
0.997899
0.997566
0.997608
0.998198
0.998475
0.999114
1.0003
1.00096
1.00124
1.00178
1.002
1.00178
1.00142
1.00173
1.0017
1.00153
1.00198
1.00213
1.00204
1.00197
1.00222
1.0019
1.00188
1.00202
1.00218
1.0018
1.00218
1.00232
1.00198
1.00202
1.00233
0.997412
0.997979
0.997794
0.997295
0.997752
0.998226
0.997615
0.997757
0.998199
0.998262
0.997678
0.99777
0.998148
0.997605
0.997581
0.998034
0.998384
0.998167
0.998265
0.998244
0.997934
0.997791
0.997919
0.998496
0.999154
1.00012
1.00084
1.00145
1.00174
1.00169
1.00154
1.0016
1.00171
1.00152
1.0018
1.0022
1.00218
1.00172
1.00204
1.00217
1.0017
1.00176
1.00211
1.00224
1.00169
1.00203
1.00238
1.00206
1.00184
1.00235
0.997863
0.997402
0.997467
0.998034
0.997684
0.997462
0.997797
0.998007
0.997491
0.997787
0.99816
0.997862
0.997609
0.997899
0.997856
0.997623
0.997776
0.998392
0.998095
0.998159
0.998347
0.997993
0.997866
0.998436
0.999441
0.999806
1.00076
1.00155
1.00162
1.00142
1.00165
1.00184
1.00152
1.002
1.00227
1.00199
1.00188
1.00227
1.00208
1.00172
1.00209
1.00244
1.0019
1.00204
1.00244
1.00224
1.00176
1.00237
1.00243
1.00191
0.997704
0.997197
0.997399
0.997835
0.997412
0.997305
0.997441
0.997718
0.997357
0.997563
0.997946
0.998022
0.997696
0.99784
0.998031
0.997554
0.99768
0.998057
0.998386
0.998201
0.998247
0.998403
0.998452
0.998712
0.999049
1.0001
1.00064
1.00103
1.00126
1.00155
1.00171
1.00153
1.00181
1.00216
1.00226
1.00187
1.00202
1.0022
1.00187
1.00194
1.00226
1.0024
1.0021
1.00236
1.00241
1.00247
1.00206
1.0024
1.00253
1.00219
0.996812
0.998069
0.997706
0.997144
0.997495
0.998274
0.997321
0.997369
0.998162
0.997975
0.997369
0.99789
0.998448
0.99775
0.997627
0.998163
0.997934
0.99763
0.997963
0.998655
0.998369
0.998659
0.999068
0.998911
0.999327
0.99988
1.00048
1.00052
1.00102
1.00151
1.00126
1.0018
1.00227
1.00202
1.00168
1.00223
1.00223
1.0015
1.00195
1.0025
1.00195
1.00167
1.00242
1.00252
1.00152
1.00226
1.00268
1.00218
1.0017
1.00291
0.997609
0.997774
0.997443
0.997418
0.997628
0.997892
0.997695
0.99764
0.997708
0.997798
0.997495
0.997542
0.997784
0.997991
0.997703
0.997766
0.997847
0.997627
0.997916
0.998135
0.998791
0.998873
0.99911
0.999635
0.999701
0.999744
0.999831
1.00049
1.00093
1.00101
1.00169
1.002
1.00221
1.00201
1.00214
1.00225
1.00193
1.00211
1.00239
1.00238
1.00212
1.00232
1.00226
1.00228
1.00212
1.00229
1.00233
1.00252
1.0022
1.00218
0.998219
0.996893
0.997136
0.998558
0.99751
0.996911
0.99774
0.998224
0.996969
0.997191
0.998155
0.997758
0.997303
0.997911
0.998426
0.997683
0.997692
0.998301
0.997971
0.998004
0.998778
0.999579
0.999663
0.999888
1.00006
0.999536
0.999695
1.00008
1.00024
1.00095
1.00178
1.00195
1.00159
1.00212
1.00233
1.00155
1.00189
1.00253
1.00224
1.00176
1.00266
1.00298
1.00179
1.0022
1.003
1.00251
1.00145
1.00273
1.00304
1.00186
0.997128
0.997614
0.9975
0.99741
0.99717
0.997512
0.997118
0.997417
0.997802
0.99745
0.997539
0.9979
0.997811
0.997549
0.997823
0.998219
0.997804
0.997706
0.998057
0.998243
0.998765
0.999424
1.00027
1.0003
0.999856
0.999896
0.999555
0.999498
1.00028
1.00109
1.00161
1.00177
1.00218
1.00223
1.00173
1.00207
1.00241
1.00215
1.00204
1.00242
1.00246
1.00207
1.00252
1.00283
1.00231
1.00277
1.00273
1.00244
1.00223
1.00299
0.996981
0.998484
0.997828
0.99651
0.99744
0.998448
0.997038
0.996937
0.998146
0.998096
0.996939
0.997527
0.998353
0.997506
0.997378
0.997988
0.998266
0.997688
0.997947
0.998728
0.998806
0.999563
1.0005
1.0007
1.00024
0.999744
0.999262
0.999329
1.0002
1.00104
1.00109
1.00182
1.00231
1.00174
1.00185
1.00252
1.00255
1.00168
1.00243
1.00305
1.00195
1.00183
1.00289
1.00289
1.00165
1.00254
1.00339
1.00238
1.00165
1.00296
0.997787
0.996952
0.996663
0.998055
0.997114
0.996784
0.997619
0.9978
0.996714
0.997158
0.99799
0.997189
0.997065
0.997788
0.997901
0.997536
0.997776
0.998453
0.998206
0.998346
0.999421
1.00008
1.00038
1.00066
1.0005
0.999674
0.999307
0.999603
0.999864
1.00035
1.00144
1.00182
1.00147
1.00201
1.00239
1.00216
1.00215
1.00285
1.00287
1.00203
1.00275
1.00328
1.00216
1.00225
1.0033
1.00295
1.00183
1.0034
1.00323
1.00219
0.99789
0.99609
0.996899
0.998271
0.997156
0.99641
0.997801
0.998154
0.99664
0.996961
0.998117
0.997844
0.996837
0.997733
0.998331
0.997558
0.997585
0.998319
0.9986
0.998655
0.999424
1.00028
1.00044
1.00056
1.00045
0.999841
0.999602
0.999623
0.999692
1.00047
1.00135
1.00137
1.00153
1.00225
1.00245
1.00171
1.0022
1.00312
1.0022
1.00187
1.0029
1.00327
1.002
1.00234
1.00343
1.00294
1.00198
1.00299
1.00385
1.00244
0.995692
0.998409
0.997725
0.996122
0.997172
0.998622
0.996709
0.996652
0.998119
0.997633
0.996629
0.997409
0.998186
0.997145
0.997147
0.998089
0.997977
0.997816
0.99845
0.999457
0.999657
1
1.00077
1.00059
1.0002
1.00009
0.999761
0.999384
0.999982
1.00046
1.00052
1.0013
1.00212
1.00213
1.00185
1.00275
1.00297
1.00186
1.00243
1.00331
1.00247
1.00181
1.00343
1.00356
1.00141
1.00285
1.00408
1.00241
1.00164
1.00446
0.996619
0.997676
0.996941
0.996243
0.996952
0.997828
0.99663
0.996363
0.997678
0.997784
0.996891
0.99711
0.997615
0.997634
0.99706
0.99746
0.998031
0.997987
0.998537
0.999465
1.00016
1.00043
1.00058
1.00044
1.0002
1.00019
0.99994
0.999697
0.999816
0.999974
1.00047
1.00134
1.002
1.0019
1.00241
1.00303
1.00251
1.00233
1.00284
1.00305
1.00231
1.0025
1.00358
1.00338
1.00247
1.00314
1.00356
1.00337
1.00267
1.00322
0.998651
0.99531
0.996372
0.999212
0.997077
0.995621
0.997766
0.998586
0.996223
0.997074
0.998781
0.997329
0.996678
0.997822
0.998338
0.997119
0.997578
0.998873
0.998993
0.999326
1.00046
1.0008
1.0003
1.00022
1.00035
1.00015
1.00018
1.0002
0.999616
0.999666
1.00073
1.00114
1.00103
1.00224
1.00296
1.00182
1.00209
1.00326
1.0029
1.00127
1.00289
1.00407
1.00162
1.00214
1.00462
1.00319
1.00092
1.00379
1.00493
1.00164
0.996397
0.996621
0.99707
0.997087
0.996633
0.996824
0.996862
0.997088
0.997012
0.996738
0.997126
0.997188
0.997034
0.99713
0.99727
0.997492
0.99768
0.99802
0.998852
0.999695
1.00041
1.0006
1.00041
1.00033
1.00021
1.00022
1.00021
1.00007
0.999773
0.999926
1.00055
1.00108
1.00188
1.00248
1.00259
1.00262
1.00285
1.00297
1.00279
1.00295
1.00336
1.00302
1.00308
1.00345
1.00325
1.00359
1.00354
1.0032
1.00336
1.00443
0.995165
0.999739
0.998044
0.993965
0.997202
0.999542
0.996185
0.995892
0.998354
0.998188
0.995939
0.997492
0.999015
0.997392
0.996874
0.998117
0.998613
0.998085
0.998889
1.00034
1.0006
1.00068
1.00088
1.00035
1
1.00044
1.00032
0.999775
0.999884
0.999975
0.999876
1.00107
1.00213
1.00165
1.00179
1.00308
1.00297
1.00114
1.00236
1.00425
1.00218
1.00153
1.00423
1.00428
1.00078
1.00286
1.0063
1.00246
1.00092
1.00504
0.998232
0.995952
0.99527
0.998048
0.996539
0.996038
0.997186
0.997316
0.996527
0.996355
0.997593
0.99698
0.996819
0.997315
0.997195
0.997017
0.997558
0.998497
0.999029
0.999849
1.00066
1.00087
1.0006
1.00035
1.00025
1.00028
1.00021
1.00002
0.999769
0.99982
1.0005
1.00134
1.00176
1.00243
1.00296
1.00294
1.00268
1.00322
1.00327
1.00253
1.00359
1.00379
1.00297
1.00286
1.00441
1.00407
1.002
1.00535
1.00499
1.00205
0.999178
0.993157
0.996289
0.99985
0.996618
0.994376
0.998028
0.999064
0.995721
0.996509
0.9985
0.997594
0.996542
0.997824
0.998369
0.99743
0.997774
0.998997
0.99945
1.00002
1.00094
1.00105
1.00058
1.0006
1.00057
0.999962
0.99995
1.00019
0.99971
0.999692
1.00059
1.00105
1.0012
1.00241
1.00295
1.00177
1.00203
1.00356
1.00274
1.00137
1.00342
1.00481
1.00148
1.00192
1.00587
1.00407
1.0008
1.00419
1.00717
1.00198
0.992817
0.999007
0.997298
0.993734
0.996002
0.998797
0.995591
0.995306
0.998003
0.997357
0.995998
0.996601
0.998055
0.99696
0.996602
0.997831
0.998121
0.998024
0.999152
1.00054
1.00088
1.00084
1.00093
1.0006
1.00022
1.00017
1.00005
0.999826
1.00005
1.00018
1.0003
1.00124
1.00238
1.00239
1.00228
1.00335
1.00333
1.00207
1.00317
1.00423
1.00314
1.00207
1.00485
1.00498
1.00159
1.00408
1.00725
1.00323
1.00138
1.00878
0.995804
1.00013
0.997187
0.99321
0.997249
0.999027
0.995929
0.995964
0.998224
0.997956
0.996394
0.997433
0.998186
0.997248
0.997264
0.998082
0.998203
0.998229
0.999468
1.00066
1.00089
1.00098
1.00126
1.00074
1.00015
1.00009
0.99965
0.999195
0.999831
1.0003
1.00039
1.00132
1.0025
1.00226
1.00204
1.00295
1.00309
1.00175
1.00246
1.00405
1.00257
1.00168
1.00421
1.00483
1.00153
1.00302
1.00727
1.00373
1.00178
1.00495
1.00029
0.989097
0.993369
1.00117
0.995851
0.992578
0.997226
0.998618
0.99529
0.995365
0.99831
0.997167
0.995785
0.997316
0.998239
0.997146
0.997265
0.998882
0.999777
1.00049
1.00142
1.00161
1.00114
1.00083
1.00045
0.999916
0.999691
0.999755
0.99972
1.00006
1.00101
1.00147
1.00169
1.00297
1.00334
1.00201
1.00227
1.00417
1.00336
1.00162
1.00448
1.00547
1.00191
1.00236
1.00779
1.00513
0.99935
1.00744
1.01139
0.999028
0.993778
0.993535
0.996362
0.998123
0.995564
0.996074
0.997548
0.997301
0.996445
0.99728
0.997712
0.997123
0.99727
0.997952
0.997706
0.997517
0.998134
0.998784
0.999426
1.00057
1.00153
1.00167
1.00104
1.00065
1.00015
0.999393
0.999174
0.999443
0.999453
1.00007
1.00129
1.00212
1.00219
1.00261
1.00305
1.0025
1.00192
1.00295
1.00336
1.00234
1.00282
1.00423
1.00315
1.00245
1.00428
1.00581
1.00229
1.0044
1.00784
1.00891
0.992301
1.0063
0.996993
0.989774
0.996947
1.00014
0.995031
0.994398
0.998497
0.997652
0.99526
0.996912
0.998575
0.997099
0.996636
0.998121
0.99808
0.997769
0.999299
1.00095
1.00146
1.00205
1.00218
1.00112
1.00012
0.999744
0.999039
0.998601
0.999475
1.00049
1.00077
1.0021
1.0034
1.00248
1.00186
1.00359
1.00317
1.001
1.00288
1.00564
1.0026
1.00106
1.00651
1.00604
0.998868
1.00421
1.01255
1.00144
0.995854
1.02281

VECTORS velocity double
2.86555e-007 2.77904e-007 0
1.10999e-007 -1.68933e-007 0
2.48271e-007 -2.34043e-007 0
5.45961e-007 -1.77946e-007 0
4.6252e-007 2.19026e-008 0
4.07183e-007 2.31935e-007 0
-2.19419e-008 4.85525e-008 0
-7.66543e-007 -3.28996e-007 0
-4.83582e-007 4.48457e-008 0
2.09635e-007 6.07109e-008 0
-6.15371e-008 -9.31906e-007 0
1.17269e-007 -6.04873e-007 0
2.10828e-006 3.13028e-007 0
2.70746e-006 -1.00506e-006 0
1.69229e-006 -1.56156e-006 0
2.63242e-006 2.66377e-007 0
3.95938e-006 -5.53334e-007 0
2.19988e-006 -2.42367e-006 0
8.5389e-007 -4.42198e-007 0
1.87953e-006 3.29928e-007 0
1.20318e-006 -2.2514e-006 0
-1.0164e-006 -1.16898e-006 0
-8.75828e-007 1.29811e-006 0
-2.97947e-007 -8.29715e-007 0
-1.45615e-006 -1.46509e-006 0
-1.28211e-006 1.70977e-006 0
1.69332e-007 1.01866e-006 0
-1.94911e-007 -1.11738e-006 0
-1.43124e-007 1.36833e-006 0
2.22813e-006 2.42313e-006 0
2.92785e-006 -2.1654e-007 0
1.80628e-006 5.24716e-007 0
3.03479e-006 2.50698e-006 0
4.66479e-006 6.00333e-007 0
3.12583e-006 -2.94991e-007 0
1.93692e-006 1.49993e-006 0
2.77087e-006 9.27571e-007 0
2.03532e-006 -4.53894e-007 0
-1.07029e-007 4.06108e-007 0
-4.04778e-007 7.21433e-007 0
-1.87064e-007 -2.84625e-007 0
-9.17182e-007 -2.93726e-007 0
-1.25436e-006 1.00015e-007 0
-5.65595e-007 -1.86107e-007 0
-1.76283e-007 -3.50128e-007 0
-1.47091e-007 -1.79866e-007 0
-2.58914e-007 9.49351e-009 0
2.13336e-007 5.49164e-007 0
-4.72801e-007 1.03945e-007 0
4.0874e-007 2.26191e-007 0
1.61321e-006 6.70435e-007 0
1.56416e-006 9.74963e-007 0
1.5128e-006 1.19281e-008 0
1.13149e-006 -2.85653e-007 0
1.48059e-006 -2.24493e-007 0
7.91499e-007 -6.1667e-007 0
6.57895e-009 -1.10848e-006 0
-1.71696e-007 -4.28968e-007 0
1.91892e-007 9.44214e-008 0
-8.03888e-007 -1.03212e-006 0
-9.02318e-007 -2.57921e-007 0
8.01265e-007 1.92937e-006 0
1.22638e-006 -2.11498e-007 0
-6.44673e-008 -1.45673e-006 0
1.4716e-006 2.21376e-006 0
3.43924e-006 7.74779e-007 0
2.28413e-006 -3.70718e-006 0
1.54264e-006 -1.47224e-007 0
3.88409e-006 1.50411e-006 0
4.72355e-006 -3.74641e-006 0
2.92922e-006 -2.97832e-006 0
2.74359e-006 9.45341e-007 0
4.94247e-006 -9.79473e-007 0
5.08343e-006 -1.9002e-006 0
2.81872e-006 -3.52935e-007 0
2.64641e-006 4.16165e-007 0
4.65972e-006 2.14606e-006 0
4.35247e-006 1.11983e-006 0
1.92141e-006 -1.01598e-006 0
1.90994e-006 2.9791e-006 0
3.70361e-006 3.8105e-006 0
2.91249e-006 -1.62428e-006 0
5.39257e-007 -6.20358e-008 0
1.363e-006 3.62567e-006 0
2.76718e-006 -8.49533e-007 0
9.9985e-007 -2.40074e-006 0
-3.9664e-007 1.32549e-006 0
1.15282e-006 1.98303e-007 0
1.03251e-006 -1.97628e-006 0
-4.62382e-007 1.80734e-007 0
-1.9524e-007 1.02134e-006 0
9.99026e-007 -9.57388e-008 0
7.70873e-007 3.85726e-007 0
9.96354e-007 1.09353e-006 0
1.80883e-006 5.24328e-007 0
2.25538e-006 1.31704e-007 0
1.77098e-006 7.01683e-008 0
1.24511e-006 -7.81893e-008 0
1.7772e-006 -3.96843e-007 0
9.54413e-007 -1.84799e-007 0
1.28976e-007 1.14703e-006 0
3.21567e-007 1.17698e-006 0
1.51496e-006 9.96168e-007 0
1.54059e-006 6.16983e-007 0
1.20835e-006 -2.01445e-007 0
2.08377e-007 -1.27559e-006 0
1.07642e-006 -7.11558e-007 0
1.7299e-006 -1.47813e-007 0
1.44297e-006 -1.689e-006 0
1.39489e-006 -8.22524e-007 0
3.75188e-006 2.39541e-006 0
3.07375e-006 5.38762e-008 0
1.0617e-006 -2.38649e-006 0
2.07202e-006 3.56832e-006 0
3.52268e-006 3.13479e-006 0
5.7123e-007 -4.61947e-006 0
2.48056e-007 9.22572e-007 0
3.67819e-006 7.58597e-006 0
4.13491e-006 -4.1442e-006 0
2.27748e-006 -5.1376e-006 0
5.69421e-006 9.5724e-006 0
9.43981e-006 1.63751e-006 0
7.34466e-006 -1.15599e-005 0
6.67702e-006 4.70083e-006 0
1.1295e-005 9.73366e-006 0
1.12833e-005 -1.00699e-005 0
6.65084e-006 -5.07163e-006 0
7.3891e-006 1.1267e-005 0
9.59065e-006 -1.85558e-006 0
5.81063e-006 -9.91647e-006 0
2.3135e-006 4.8158e-006 0
4.27984e-006 4.0951e-006 0
3.90984e-006 -7.72784e-006 0
3.12262e-007 -1.23435e-006 0
4.68047e-007 4.62845e-006 0
3.45677e-006 -2.967e-006 0
1.91111e-006 -3.60687e-006 0
6.35047e-007 2.48824e-006 0
2.53392e-006 2.94765e-007 0
3.24116e-006 -2.13731e-006 0
8.02644e-007 1.01883e-006 0
8.0304e-007 1.96983e-006 0
1.16173e-006 3.8727e-007 0
7.03897e-007 8.3134e-007 0
4.41907e-009 1.22935e-006 0
8.87271e-007 5.79547e-009 0
1.23113e-006 -4.30174e-007 0
1.02873e-006 -1.04216e-006 0
9.98461e-007 -6.70239e-007 0
3.6504e-007 -1.21806e-006 0
-1.58944e-007 1.41819e-006 0
3.34396e-007 1.50843e-006 0
3.25679e-007 1.49639e-006 0
-6.9614e-007 6.17127e-007 0
-7.52814e-007 -2.02075e-007 0
-3.9576e-007 1.9522e-007 0
1.20945e-006 1.04076e-006 0
-4.11067e-008 -7.43148e-007 0
1.01159e-006 -3.80798e-007 0
3.31704e-006 3.26652e-006 0
3.08709e-006 -5.9293e-008 0
9.41704e-008 -3.22318e-006 0
2.76467e-006 3.2383e-006 0