# vtk DataFile Version 4.0
SiwiRVisFile
ASCII
DATASET STRUCTURED_POINTS
DIMENSIONS 5 5 1
ORIGIN 0 0 0
SPACING 1 1 1
POINT_DATA 25

SCALARS flags double 1
LOOKUP_TABLE default
1
1
1
1
1
1
1
1
1
1
1
1
1
1
1
1
1
1
1
1
1
1
1
1
1

SCALARS density double 1
LOOKUP_TABLE default
0.983136
1.03671
1.00013
0.963462
1.0183
0.986387
1.03194
1.00072
0.968811
1.01256
1.02026
0.946877
0.999275
1.0524
0.978952
1.00153
0.984977
0.998287
1.01297
0.998444
0.972627
1.05918
0.998881
0.940309
1.03288

VECTORS velocity double
-0.00126232 0.00177934 0
-0.00195374 -0.00236922 0
0.00304863 -0.000597365 0
-0.000771764 0.00326329 0
-0.00141912 -0.00155177 0
0.000833187 0.00414983 0
-0.0066958 -0.00056971 0
-0.0130453 -0.000898031 0
-0.00706972 -0.000849313 0
0.00179578 -0.00359864 0
-0.00105008 0.00519931 0
-0.0130694 0.018537 0
-0.0204571 -0.000236536 0
-0.013239 -0.019061 0
-0.00203557 -0.00289503 0
-0.00741691 0.016915 0
-0.00864579 0.0216299 0
-0.00241036 -0.000938665 0
-0.0110981 -0.0197039 0
-0.00514986 -0.0182469 0
0.0223693 0.0123989 0
0.0456758 0.00186589 0
0.0525313 0.000362248 0
0.0450466 -0.00336946 0
0.0285141 -0.015436 0
