# vtk DataFile Version 4.0
SiwiRVisFile
ASCII
DATASET STRUCTURED_POINTS
DIMENSIONS 50 50 1
ORIGIN 0 0 0
SPACING 1 1 1
POINT_DATA 2500

SCALARS flags double 1
LOOKUP_TABLE default
1
1
1
1
1
1
1
1
1
1
1
1
1
1
1
1
1
1
1
1
1
1
1
1
1
1
1
1
1
1
1
1
1
1
1
1
1
1
1
1
1
1
1
1
1
1
1
1
1
1
1
1
1
1
1
1
1
1
1
1
1
1
1
1
1
1
1
1
1
1
1
1
1
1
1
1
1
1
1
1
1
1
1
1
1
1
1
1
1
1
1
1
1
1
1
1
1
1
1
1
1
1
1
1
1
1
1
1
1
1
1
1
1
1
1
1
1
1
1
1
1
1
1
1
1
1
1
1
1
1
1
1
1
1
1
1
1
1
1
1
1
1
1
1
1
1
1
1
1
1
1
1
1
1
1
1
1
1
1
1
1
1
1
1
1
1
1
1
1
1
1
1
1
1
1
1
1
1
1
1
1
1
1
1
1
1
1
1
1
1
1
1
1
1
1
1
1
1
1
1
1
1
1
1
1
1
1
1
1
1
1
1
1
1
1
1
1
1
1
1
1
1
1
1
1
1
1
1
1
1
1
1
1
1
1
1
1
1
1
1
1
1
1
1
1
1
1
1
1
1
1
1
1
1
1
1
1
1
1
1
1
1
1
1
1
1
1
1
1
1
1
1
1
1
1
1
1
1
1
1
1
1
1
1
1
1
1
1
1
1
1
1
1
1
1
1
1
1
1
1
1
1
1
1
1
1
1
1
1
1
1
1
1
1
1
1
1
1
1
1
1
1
1
1
1
1
1
1
1
1
1
1
1
1
1
1
1
1
1
1
1
1
1
1
1
1
1
1
1
1
1
1
1
1
1
1
1
1
1
1
1
1
1
1
1
1
1
1
1
1
1
1
1
1
1
1
1
1
1
1
1
1
1
1
1
1
1
1
1
1
1
1
1
1
1
1
1
1
1
1
1
1
1
1
1
1
1
1
1
1
1
1
1
1
1
1
1
1
1
1
1
1
1
1
1
1
1
1
1
1
1
1
1
1
1
1
1
1
1
1
1
1
1
1
1
1
1
1
1
1
1
1
1
1
1
1
1
1
1
1
1
1
1
1
1
1
1
1
1
1
1
1
1
1
1
1
1
1
1
1
1
1
1
1
1
1
1
1
1
1
1
1
1
1
1
1
1
1
1
1
1
1
1
1
1
1
1
1
1
1
1
1
1
1
1
1
1
1
1
1
1
1
1
1
1
1
1
1
1
1
1
1
1
1
1
1
1
1
1
1
1
1
1
1
1
1
1
1
1
1
1
1
1
1
1
1
1
1
1
1
1
1
1
1
1
1
1
1
1
1
1
1
1
1
1
1
1
1
1
1
1
1
1
1
1
1
1
1
1
1
1
1
1
1
1
1
1
1
1
1
1
1
1
1
1
1
1
1
1
1
1
1
1
1
1
1
1
1
1
1
1
1
1
1
1
1
1
1
1
1
1
1
1
1
1
1
1
1
1
1
1
1
1
1
1
1
1
1
1
1
1
1
1
1
1
1
1
1
1
1
1
1
1
1
1
1
1
1
1
1
1
1
1
1
1
1
1
1
1
1
1
1
1
1
1
1
1
1
1
1
1
1
1
1
1
1
1
1
1
1
1
1
1
1
1
1
1
1
1
1
1
1
1
1
1
1
1
1
1
1
1
1
1
1
1
1
1
1
1
1
1
1
1
1
1
1
1
1
1
1
1
1
1
1
1
1
1
1
1
1
1
1
1
1
1
1
1
1
1
1
1
1
1
1
1
1
1
1
1
1
1
1
1
1
1
1
1
1
1
1
1
1
1
1
1
1
1
1
1
1
1
1
1
1
1
1
1
1
1
1
1
1
1
1
1
1
1
1
1
1
1
1
1
1
1
1
1
1
1
1
1
1
1
1
1
1
1
1
1
1
1
1
1
1
1
1
1
1
1
1
1
1
1
1
1
1
1
1
1
1
1
1
1
1
1
1
1
1
1
1
1
1
1
1
1
1
1
1
1
1
1
1
1
1
1
1
1
1
1
1
1
1
1
1
1
1
1
1
1
1
1
1
1
1
1
1
1
1
1
1
1
1
1
1
1
1
1
1
1
1
1
1
1
1
1
1
1
1
1
1
1
1
1
1
1
1
1
1
1
1
1
1
1
1
1
1
1
1
1
1
1
1
1
1
1
1
1
1
1
1
1
1
1
1
1
1
1
1
1
1
1
1
1
1
1
1
1
1
1
1
1
1
1
1
1
1
1
1
1
1
1
1
1
1
1
1
1
1
1
1
1
1
1
1
1
1
1
1
1
1
1
1
1
1
1
1
1
1
1
1
1
1
1
1
1
1
1
1
1
1
1
1
1
1
1
1
1
1
1
1
1
1
1
1
1
1
1
1
1
1
1
1
1
1
1
1
1
1
1
1
1
1
1
1
1
1
1
1
1
1
1
1
1
1
1
1
1
1
1
1
1
1
1
1
1
1
1
1
1
1
1
1
1
1
1
1
1
1
1
1
1
1
1
1
1
1
1
1
1
1
1
1
1
1
1
1
1
1
1
1
1
1
1
1
1
1
1
1
1
1
1
1
1
1
1
1
1
1
1
1
1
1
1
1
1
1
1
1
1
1
1
1
1
1
1
1
1
1
1
1
1
1
1
1
1
1
1
1
1
1
1
1
1
1
1
1
1
1
1
1
1
1
1
1
1
1
1
1
1
1
1
1
1
1
1
1
1
1
1
1
1
1
1
1
1
1
1
1
1
1
1
1
1
1
1
1
1
1
1
1
1
1
1
1
1
1
1
1
1
1
1
1
1
1
1
1
1
1
1
1
1
1
1
1
1
1
1
1
1
1
1
1
1
1
1
1
1
1
1
1
1
1
1
1
1
1
1
1
1
1
1
1
1
1
1
1
1
1
1
1
1
1
1
1
1
1
1
1
1
1
1
1
1
1
1
1
1
1
1
1
1
1
1
1
1
1
1
1
1
1
1
1
1
1
1
1
1
1
1
1
1
1
1
1
1
1
1
1
1
1
1
1
1
1
1
1
1
1
1
1
1
1
1
1
1
1
1
1
1
1
1
1
1
1
1
1
1
1
1
1
1
1
1
1
1
1
1
1
1
1
1
1
1
1
1
1
1
1
1
1
1
1
1
1
1
1
1
1
1
1
1
1
1
1
1
1
1
1
1
1
1
1
1
1
1
1
1
1
1
1
1
1
1
1
1
1
1
1
1
1
1
1
1
1
1
1
1
1
1
1
1
1
1
1
1
1
1
1
1
1
1
1
1
1
1
1
1
1
1
1
1
1
1
1
1
1
1
1
1
1
1
1
1
1
1
1
1
1
1
1
1
1
1
1
1
1
1
1
1
1
1
1
1
1
1
1
1
1
1
1
1
1
1
1
1
1
1
1
1
1
1
1
1
1
1
1
1
1
1
1
1
1
1
1
1
1
1
1
1
1
1
1
1
1
1
1
1
1
1
1
1
1
1
1
1
1
1
1
1
1
1
1
1
1
1
1
1
1
1
1
1
1
1
1
1
1
1
1
1
1
1
1
1
1
1
1
1
1
1
1
1
1
1
1
1
1
1
1
1
1
1
1
1
1
1
1
1
1
1
1
1
1
1
1
1
1
1
1
1
1
1
1
1
1
1
1
1
1
1
1
1
1
1
1
1
1
1
1
1
1
1
1
1
1
1
1
1
1
1
1
1
1
1
1
1
1
1
1
1
1
1
1
1
1
1
1
1
1
1
1
1
1
1
1
1
1
1
1
1
1
1
1
1
1
1
1
1
1
1
1
1
1
1
1
1
1
1
1
1
1
1
1
1
1
1
1
1
1
1
1
1
1
1
1
1
1
1
1
1
1
1
1
1
1
1
1
1
1
1
1
1
1
1
1
1
1
1
1
1
1
1
1
1
1
1
1
1
1
1
1
1
1
1
1
1
1
1
1
1
1
1
1
1
1
1
1
1
1
1
1
1
1
1
1
1
1
1
1
1
1
1
1
1
1
1
1
1
1
1
1
1
1
1
1
1
1
1
1
1
1
1
1
1
1
1
1
1
1
1
1
1
1
1
1
1
1
1
1
1
1
1
1
1
1
1
1
1
1
1
1
1
1
1
1
1
1
1
1
1
1
1
1
1
1
1
1
1
1
1
1
1
1
1
1
1
1
1
1
1
1
1
1
1
1
1
1
1
1
1
1
1
1
1
1
1
1
1
1
1
1
1
1
1
1
1
1
1
1
1
1
1
1
1
1
1
1
1
1
1
1
1
1
1
1
1
1
1
1
1
1
1
1
1
1
1
1
1
1
1
1
1
1
1
1
1
1
1
1
1
1
1
1
1
1
1
1
1
1
1
1
1
1
1
1
1
1
1
1
1
1
1
1
1
1
1
1
1
1
1
1
1
1
1
1
1
1
1
1
1
1
1
1
1
1
1
1
1
1
1
1
1
1
1
1
1
1
1
1
1
1
1
1
1
1
1
1
1
1
1
1
1
1
1
1
1
1
1
1
1
1
1
1
1
1
1
1
1
1
1
1
1
1
1
1
1
1
1
1
1
1
1
1
1
1
1
1
1
1
1
1
1
1
1
1
1
1
1
1
1
1
1
1
1
1
1
1
1
1
1
1
1
1
1
1
1
1
1
1
1
1
1
1
1
1
1
1
1
1
1
1
1
1
1
1
1
1
1
1
1
1
1
1
1
1
1
1
1
1
1
1
1
1
1
1
1
1
1
1
1
1
1
1
1
1
1
1
1
1
1
1
1
1
1
1
1
1
1
1
1
1
1
1
1
1
1
1
1
1
1
1
1
1
1
1
1
1
1
1
1
1
1
1
1
1
1
1
1
1
1
1
1
1
1
1
1
1
1
1
1
1
1
1
1
1
1
1
1
1
1
1
1
1
1
1
1
1
1
1
1
1
1
1
1
1
1
1
1
1
1
1
1
1
1
1
1
1
1
1
1
1
1
1
1
1
1
1
1
1
1
1
1
1
1
1
1
1
1
1
1
1
1
1
1
1
1
1
1
1
1
1
1
1
1
1
1
1
1
1
1
1
1
1
1
1
1
1
1
1
1
1
1
1
1
1
1
1
1
1
1
1
1
1
1
1
1
1
1
1
1
1
1
1
1
1
1
1
1
1
1
1
1
1
1
1
1
1
1
1
1
1
1
1
1
1
1
1
1
1
1
1
1
1
1
1
1
1
1
1
1
1
1
1
1
1
1
1
1
1
1
1
1
1
1
1
1
1
1
1
1
1
1
1
1
1
1
1
1
1
1
1
1
1
1
1
1
1
1
1
1
1
1
1
1
1
1
1
1
1
1
1
1
1
1
1
1
1
1
1
1
1
1
1
1
1
1
1
1
1
1
1
1
1
1
1
1
1
1
1
1
1
1
1
1
1
1
1
1
1
1
1
1
1
1
1
1
1
1
1
1
1
1
1
1
1
1
1
1
1
1
1
1
1
1
1
1
1
1
1
1
1
1
1
1
1
1
1
1
1
1
1
1
1
1
1
1
1
1
1
1
1
1
1
1
1
1
1
1
1
1
1
1
1
1
1
1
1
1
1
1
1
1
1
1
1
1
1
1
1
1
1
1
1
1
1
1
1
1
1
1
1
1
1
1
1
1
1
1
1
1
1
1
1
1
1
1
1
1
1
1
1
1
1
1
1
1
1
1
1
1
1

SCALARS density double 1
LOOKUP_TABLE default
1
1
1
1
1
1
1
1
1
1
1
1
1
1
1
1
1
1
1
1
1
1
1
1
1
1
1
1
1
1
1
1
1
1
1
1
1
1
1
1
1
1
1
1
1
1
1
1
1
0.999999
1
1
1
1
1
1
1
1
1
1
1
1
1
1
1
1
1
1
0.999999
1
1
0.999999
1
1
1
1
1
1
1
1
1
1
1
0.999999
1
1
1
1
1
1
1
1
1
1
1
1
1
1
0.999999
1
1
0.999999
1
1
1
1
1
1
1
1
1
1
1
0.999999
1
1
0.999999
0.999998
1
1
0.999998
0.999999
1
0.999999
0.999999
1
1
0.999999
1
1
0.999999
1
1
1
0.999999
1
1
0.999999
0.999999
1
0.999999
0.999999
1
1
1
1
1
1
1
1
1
1
1
1
0.999999
1
1
1
1
0.999999
1
1
0.999998
0.999999
1
0.999999
0.999996
1
1
0.999997
1
1
1
0.999999
1
0.999999
1
1
0.999995
1
1
0.999997
0.999997
1
1
0.999998
1
1
0.999999
1
1
1
1
1
1
1
1
0.999999
1
0.999999
0.999999
1
0.999999
1
1
1
1
1
0.999999
1
1
0.999997
0.999998
1
1
0.999993
1
1.00001
0.999992
0.999996
1.00001
0.999999
0.999986
1.00001
1.00001
0.999988
0.999993
1.00001
1
0.999987
1
1.00001
0.999994
0.999997
1.00001
1
0.999997
1
1
0.999999
0.999999
1
1
0.999999
1
1
1
1
1
1
1
0.999999
1
0.999999
1
1
1
0.999999
1
1
0.999997
0.999997
1.00001
1
0.999991
1.00001
1.00001
0.999987
0.999998
1.00001
0.999989
0.99999
1.00002
0.999995
0.999986
1.00002
1.00001
0.999985
1.00001
1.00001
0.999986
1
1.00001
0.999991
0.999993
1.00001
0.999999
0.999993
1
1
0.999997
0.999999
1
0.999999
0.999999
1
1
1
0.999999
1
1
0.999999
1
1
1
1
0.999999
1
1
0.999997
0.999996
1.00001
1
0.999988
1
1.00002
0.999988
0.999981
1.00003
1.00001
0.999962
1
1.00004
0.999981
0.999964
1.00003
1.00002
0.999958
0.999998
1.00004
0.999987
0.999972
1.00002
1.00001
0.999981
0.999995
1.00001
0.999997
0.999993
1
1
0.999999
1
1
1
0.999999
1
1
1
1
0.999998
0.999999
0.999999
1
1
1
1
1
0.999997
0.999996
1.00001
1
0.999984
1.00001
1.00002
0.99997
1
1.00004
0.999969
0.99997
1.00006
1.00001
0.999937
1.00003
1.00005
0.999944
0.99997
1.00006
0.999993
0.99994
1.00003
1.00003
0.99996
0.999998
1.00003
0.999986
0.999988
1.00002
1
0.99999
1
1
0.999997
0.999999
1
0.999999
0.999999
0.999999
1
1
0.999995
0.999997
0.999999
0.999999
1
1
1
0.999998
0.999997
1.00001
1.00001
0.999989
0.999994
1.00002
1
0.999965
1.00001
1.00003
0.999974
0.99997
1.00004
1.00001
0.999951
1.00002
1.00004
0.999961
0.99998
1.00005
0.999995
0.999961
1.00002
1.00003
0.99997
0.999989
1.00003
1
0.999978
1
1.00001
0.999993
0.999993
1
1
0.999998
0.999998
1
1
1
1
1.00001
0.999991
0.999993
0.999995
0.999995
0.999998
1
0.999995
0.999991
1.00001
1
0.99997
1.00002
1.00003
0.999935
0.999994
1.00009
0.999955
0.999922
1.00009
1.00004
0.999896
1.00001
1.00009
0.999951
0.999924
1.00007
1.00005
0.99991
0.99999
1.0001
0.999967
0.999912
1.00007
1.00005
0.999912
1
1.00006
0.99997
0.999976
1.00003
1
0.999987
1.00001
1
0.999999
1
1
1.00001
1.00001
1.00001
0.999985
0.999989
0.999989
0.999993
0.999994
0.999995
1
0.999996
1
1.00001
0.999981
0.999998
1.00003
0.99999
0.999971
1.00002
1.00002
0.999978
0.999992
1.00003
0.999991
0.999979
1.00002
1
0.999985
1.00001
1
0.999985
1.00001
1.00001
0.999978
1.00001
1.00001
0.99998
0.999988
1.00002
1.00001
0.999981
1
1.00002
0.999996
0.999997
1
1
1.00001
1
1.00001
1.00001
1.00001
1.00001
0.999983
0.99998
0.999981
0.99999
0.999988
0.99998
1.00002
1.00001
0.999945
1.00002
1.00008
0.999921
0.999946
1.00012
0.999993
0.999888
1.00007
1.00006
0.999914
0.999986
1.00008
0.999993
0.999945
1.00003
1.00004
0.99996
0.999967
1.00005
1.00001
0.999926
1.00001
1.00009
0.999945
0.99993
1.0001
1.00001
0.999879
1.00005
1.00007
0.999926
0.999976
1.00005
0.999989
0.999982
1.00002
1.00001
1.00001
1.00002
1.00002
1.00002
0.999977
0.999975
0.999966
0.99997
0.999992
0.999968
0.999972
1.00003
0.999995
0.999947
1.00002
1.00004
0.999971
0.999968
1.00003
1.00001
0.999964
1
1.00002
0.999989
0.999993
0.999999
1.00001
1
0.999992
1.00001
0.999998
0.999988
1
1.00001
1.00001
0.999978
1
1.00004
0.999977
0.999972
1.00004
1.00002
0.999954
0.99999
1.00005
0.999999
0.999972
1.00003
1.00003
1.00001
1.00003
1.00003
1.00002
1.00002
0.999945
0.99996
0.999947
0.999918
0.999971
0.999999
0.999895
0.999955
1.0001
0.999956
0.999888
1.00009
1.00003
0.999904
1.00002
1.00005
0.999962
0.999972
1.00002
1.00002
0.99996
0.999988
1.00005
0.99997
0.999955
1.00004
1.00003
0.999948
1.00001
1.00004
0.999978
0.999975
1.00002
1.00004
0.999956
0.999971
1.00009
0.999973
0.99992
1.0001
1.00004
0.999913
1.00004
1.00009
1
1.00003
1.00008
1.00005
1.00004
1.00005
0.999919
0.999905
0.999939
0.999899
0.999852
0.99996
0.999991
0.99988
0.999923
1.00004
1.00001
0.999939
0.999991
1.00005
0.999981
0.999969
1.00003
1.00001
0.999999
0.999989
1.00002
1
0.999964
1.00002
1.00003
0.999972
0.999975
1.00004
1
0.999971
1.00001
1.00001
0.999984
0.999964
1.00003
1.00002
0.999939
1.00001
1.00006
0.999976
0.999961
1.00008
1.0001
1
1.00004
1.00014
1.00009
1.00006
1.00008
1.00007
0.999899
0.999762
0.999836
0.999913
0.999806
0.999755
0.999942
0.999926
0.999823
0.99996
1.00001
0.999921
0.999981
1.00002
0.999998
0.999967
0.99999
1.00007
0.999958
0.999943
1.00008
1.00001
0.999918
1.00003
1.00005
0.999944
0.999971
1.00008
0.999991
0.999919
1.00005
1.00004
0.999936
1
1.00002
0.999997
0.999975
1.00001
1.00007
0.999982
1.00003
1.00015
1.00006
1.00006
1.00022
1.00016
1.00007
1.00015
1.0002
1.00009
0.99973
0.999669
0.999638
0.999653
0.999784
0.99969
0.999632
0.999774
0.999861
0.999799
0.999832
0.999995
0.999959
0.999905
1.00001
1.00003
0.99995
0.999954
1.00006
1.00002
0.999892
1.00002
1.00007
0.999957
0.999959
1.00004
1.00005
0.999929
0.999966
1.00011
0.999984
0.999926
1.00004
1.00005
0.999965
0.999969
1.00009
1.00004
0.999979
1.00015
1.00019
1.0001
1.00019
1.00033
1.00025
1.00017
1.00029
1.0003
1.00026
1.00023
0.999359
0.999561
0.999514
0.999294
0.999426
0.999545
0.999451
0.999503
0.999647
0.999644
0.999709
0.999844
0.999904
0.999884
0.999917
1.00007
0.999991
0.999904
1.00006
1.00001
0.999955
1.00002
1.00004
1
0.999942
1.00006
1
0.999958
0.999982
1.00003
0.999991
0.999933
1.00008
1.00001
0.999923
1.00006
1.00009
1.00008
1.00013
1.00024
1.0003
1.00029
1.00041
1.00045
1.00035
1.00047
1.00056
1.00037
1.00034
1.00051
0.99925
0.999053
0.999063
0.999129
0.999014
0.999077
0.999215
0.999181
0.999199
0.99944
0.999516
0.999498
0.999723
0.999899
0.999834
0.999863
1.00001
1.00007
0.999869
1.00001
1.00009
0.999964
0.999912
1.00001
1.00012
0.999885
0.999974
1.00008
1.00004
0.999911
0.999975
1.00013
0.999931
0.999964
1.00011
1.00014
1.00006
1.0002
1.00043
1.00039
1.00043
1.00065
1.00065
1.00059
1.0007
1.00077
1.00062
1.00072
1.00074
1.00055
0.998931
0.998412
0.998523
0.998761
0.998566
0.99856
0.998714
0.998743
0.998763
0.998941
0.999098
0.999213
0.999332
0.999579
0.999739
0.999752
0.999913
0.999927
0.999999
0.999951
0.999997
1.00002
0.999955
0.999998
1
0.999995
0.999983
1.00005
0.999979
0.999994
1.00004
0.999984
1.00006
1.00006
1.00019
1.0002
1.00034
1.00054
1.00062
1.00072
1.00082
1.00094
1.00094
1.00095
1.00106
1.00106
1.00087
1.00109
1.00117
1.00079
0.998043
0.998218
0.998315
0.998106
0.998112
0.99829
0.998194
0.998292
0.998454
0.998352
0.998509
0.998818
0.998991
0.999076
0.999387
0.999699
0.999676
0.999761
1.00004
1.00002
0.99989
0.999995
1.00013
0.999981
0.999839
1.00014
1.00004
0.999854
0.999994
1.00009
0.999987
0.999933
1.00017
1.00027
1.00022
1.00047
1.00074
1.00079
1.00088
1.00112
1.00124
1.00111
1.00121
1.00131
1.00118
1.00134
1.00138
1.0012
1.00122
1.00145
0.997676
0.998104
0.997887
0.997827
0.998061
0.998177
0.997921
0.998
0.998072
0.998138
0.998129
0.998178
0.99845
0.998725
0.998849
0.999184
0.999505
0.999715
0.999678
0.999948
0.999962
0.999921
1.00002
0.999955
1.00011
0.999881
1.00002
0.999987
1.00004
1.00003
1.00001
1.00027
1.00021
1.00036
1.00064
1.00089
1.00095
1.00115
1.00137
1.00135
1.0013
1.00136
1.00139
1.00147
1.00127
1.00136
1.00153
1.00155
1.00133
1.00165
0.997808
0.9977
0.997666
0.998128
0.998009
0.997872
0.998093
0.998176
0.997841
0.997928
0.998069
0.997819
0.997896
0.998233
0.998462
0.998488
0.999096
0.999402
0.999517
0.9996
1.00003
0.999981
0.99977
1.00011
0.999986
1.00002
0.999859
1.00019
1.00003
0.999911
1.00032
1.00038
1.00044
1.00067
1.00117
1.00116
1.0013
1.00154
1.00159
1.00137
1.00146
1.00158
1.00131
1.00137
1.00159
1.00155
1.00132
1.00175
1.00176
1.00158
0.997651
0.997643
0.997948
0.998171
0.99793
0.998064
0.998189
0.998267
0.998158
0.998032
0.998066
0.99807
0.997782
0.997732
0.998024
0.998311
0.998344
0.998866
0.999308
0.999621
0.99956
0.999886
1.00007
0.999901
0.999977
0.999993
1.0001
0.999891
1.00005
1.00036
1.00027
1.00048
1.00085
1.00127
1.00123
1.00142
1.0017
1.00163
1.00136
1.00143
1.00149
1.0014
1.00137
1.00147
1.00152
1.00173
1.00148
1.00161
1.00183
1.00186
0.997533
0.998068
0.997902
0.997578
0.997824
0.998411
0.997845
0.997999
0.998462
0.998371
0.997971
0.99818
0.998104
0.997758
0.997632
0.997976
0.998015
0.998196
0.998818
0.999122
0.999436
0.99958
0.999997
0.999862
0.999851
1.0001
1.0001
0.999984
1.00028
1.00043
1.00064
1.00088
1.00137
1.00149
1.00148
1.00178
1.00168
1.00141
1.0014
1.00162
1.00134
1.00128
1.00169
1.0019
1.00135
1.00181
1.00206
1.00185
1.00151
1.00201
0.997862
0.99787
0.997531
0.997656
0.997664
0.99775
0.997643
0.997899
0.998026
0.998113
0.998331
0.998119
0.998279
0.998069
0.997845
0.997494
0.997872
0.99798
0.998055
0.998658
0.999206
0.999482
0.999437
0.999986
1.00003
0.99993
0.999942
1.00041
1.00042
1.00052
1.00099
1.0015
1.00151
1.00156
1.00195
1.00168
1.00147
1.00139
1.00161
1.00142
1.00164
1.0018
1.00179
1.002
1.00199
1.00199
1.0019
1.00218
1.00185
1.00182
0.998156
0.997595
0.997494
0.998292
0.997625
0.997434
0.997765
0.998057
0.997518
0.997823
0.998399
0.998338
0.998038
0.998383
0.998177
0.99781
0.997616
0.99787
0.99779
0.998128
0.998653
0.999129
0.999459
0.999621
1.00004
0.999885
1.00023
1.0004
1.0006
1.00099
1.0014
1.00168
1.00161
1.00184
1.00173
1.00145
1.00137
1.00171
1.00148
1.00145
1.00191
1.00218
1.00173
1.00188
1.00221
1.00211
1.00149
1.00215
1.00218
1.00178
0.997739
0.99815
0.997963
0.998046
0.997743
0.998114
0.997623
0.997597
0.99776
0.99772
0.997676
0.998009
0.99823
0.998151
0.998279
0.998201
0.997803
0.99735
0.997923
0.997728
0.998027
0.998572
0.999216
0.999489
0.999474
1.00035
1.00038
1.00049
1.00104
1.00154
1.00177
1.00155
1.00209
1.00185
1.00148
1.00151
1.0017
1.00162
1.00176
1.00216
1.00205
1.00192
1.00221
1.0022
1.00168
1.0021
1.00201
1.00195
1.00177
1.00227
0.997793
0.998493
0.997965
0.997701
0.997857
0.998318
0.997675
0.997488
0.998012
0.997666
0.997388
0.997615
0.998307
0.998085
0.998043
0.998392
0.998086
0.997889
0.997461
0.997854
0.997704
0.998178
0.998732
0.999195
0.999852
0.999921
1.00051
1.00092
1.00137
1.00177
1.00165
1.00206
1.00179
1.00161
1.00147
1.00179
1.00178
1.00159
1.00215
1.00235
1.00212
1.00183
1.00228
1.00223
1.00174
1.0021
1.00229
1.00212
1.0016
1.00219
0.998083
0.997653
0.997342
0.998303
0.997625
0.997514
0.997949
0.998189
0.997485
0.99767
0.997942
0.997718
0.997409
0.998078
0.998205
0.998084
0.998267
0.998213
0.997655
0.997337
0.997907
0.997811
0.998087
0.998987
0.999624
1.00006
1.00057
1.00146
1.00174
1.0016
1.00215
1.00203
1.00156
1.00156
1.00184
1.00171
1.00172
1.00236
1.00213
1.00182
1.00214
1.00241
1.00173
1.00188
1.00243
1.00226
1.00158
1.00255
1.00235
1.00187
0.997656
0.997278
0.997247
0.998083
0.997368
0.997459
0.997941
0.998111
0.997659
0.99767
0.998053
0.997599
0.997332
0.997614
0.998218
0.997928
0.998114
0.998176
0.998088
0.997727
0.997298
0.997713
0.997993
0.998499
0.999304
1.00021
1.00105
1.00148
1.00177
1.00226
1.00201
1.00168
1.00171
1.00182
1.00194
1.00169
1.0022
1.00247
1.00222
1.00188
1.00223
1.0022
1.00191
1.00199
1.00234
1.00244
1.00186
1.00243
1.0025
1.00229
0.9969
0.998169
0.997706
0.997344
0.997556
0.998306
0.997543
0.997357
0.998297
0.99805
0.997461
0.9978
0.998156
0.997635
0.997288
0.998286
0.99825
0.998048
0.998254
0.998017
0.997577
0.997457
0.99808
0.998301
0.999012
1.00036
1.00116
1.00143
1.00202
1.00211
1.00179
1.00161
1.00188
1.00175
1.00156
1.00248
1.0023
1.00173
1.00205
1.00248
1.00198
1.0016
1.00256
1.00244
1.00164
1.00226
1.00261
1.00212
1.00166
1.00287
0.997134
0.997849
0.997156
0.997463
0.997176
0.997572
0.997259
0.997234
0.997408
0.997742
0.997738
0.997625
0.997848
0.997643
0.997505
0.997634
0.998098
0.997973
0.998061
0.998082
0.99792
0.997576
0.99738
0.998337
0.999274
1.0001
1.001
1.00207
1.00214
1.00185
1.0018
1.00192
1.00196
1.00181
1.00224
1.00238
1.00219
1.00207
1.00231
1.00213
1.00213
1.00245
1.00252
1.00253
1.0024
1.00264
1.00238
1.00273
1.00212
1.0025
0.997914
0.996942
0.996773
0.998417
0.997206
0.996838
0.997777
0.998095
0.997188
0.997387
0.998556
0.997791
0.997419
0.998042
0.998092
0.99749
0.99746
0.998584
0.998237
0.998022
0.998134
0.997928
0.997795
0.998232
0.999291
1.00005
1.00112
1.0018
1.00181
1.0017
1.00191
1.00183
1.00137
1.00231
1.00248
1.00187
1.00186
1.00252
1.0022
1.00135
1.00239
1.00269
1.0018
1.00197
1.00298
1.00261
1.00153
1.00291
1.00299
1.00194
0.996905
0.997819
0.997503
0.997654
0.997432
0.998002
0.997677
0.997572
0.997888
0.997586
0.997402
0.997863
0.997925
0.997702
0.997747
0.997841
0.99775
0.997562
0.998152
0.998184
0.998075
0.998113
0.998257
0.998392
0.998925
1.00036
1.00115
1.00136
1.00165
1.00188
1.00181
1.00171
1.00234
1.00228
1.00208
1.00218
1.00231
1.00209
1.002
1.00257
1.00242
1.00208
1.00248
1.00237
1.00185
1.00244
1.00242
1.00233
1.00208
1.00307
0.996714
0.9985
0.997351
0.99648
0.997158
0.998495
0.996873
0.996533
0.997924
0.997848
0.99674
0.997181
0.998363
0.997564
0.997279
0.997989
0.9979
0.997456
0.997757
0.998601
0.998245
0.998152
0.998561
0.998717
0.999386
1.00012
1.00086
1.00117
1.00167
1.00175
1.00139
1.00211
1.00252
1.00207
1.00191
1.00261
1.00246
1.00155
1.00259
1.00315
1.00223
1.00203
1.00339
1.00314
1.00165
1.00273
1.00343
1.00263
1.00165
1.0031
0.998063
0.997374
0.996661
0.998318
0.997393
0.996844
0.997705
0.997731
0.997243
0.997479
0.998277
0.99775
0.997412
0.998277
0.998168
0.997758
0.997914
0.998075
0.998019
0.997827
0.998626
0.998827
0.998726
0.99934
0.999784
0.999894
1.00029
1.00108
1.00117
1.00124
1.00205
1.00206
1.00192
1.00204
1.00232
1.00193
1.00156
1.00246
1.00233
1.0017
1.00246
1.00279
1.00217
1.00214
1.00325
1.00263
1.00165
1.00323
1.0029
1.0019
0.997856
0.996443
0.996709
0.998535
0.996984
0.996288
0.99742
0.998116
0.996922
0.99685
0.998025
0.997606
0.997011
0.997417
0.998147
0.997492
0.997348
0.997852
0.997692
0.997633
0.998197
0.99906
0.999276
0.999518
0.999846
0.999989
1.00034
1.00067
1.00086
1.00165
1.00232
1.00231
1.00209
1.0026
1.00263
1.00184
1.00245
1.00304
1.00258
1.00199
1.00308
1.00307
1.00198
1.00256
1.00355
1.00305
1.0019
1.00315
1.00361
1.00248
0.995937
0.998456
0.997584
0.996066
0.997021
0.998415
0.996663
0.996426
0.998478
0.997402
0.996589
0.99756
0.998461
0.997382
0.997122
0.9984
0.998182
0.99757
0.998064
0.998451
0.998484
0.998908
1.00001
1.00029
0.99992
1.0001
0.999858
0.999931
1.00096
1.00156
1.00154
1.00182
1.00244
1.002
1.00145
1.00265
1.00271
1.0017
1.00241
1.00343
1.00268
1.00147
1.0035
1.00341
1.00158
1.00282
1.00423
1.00244
1.00161
1.00416
0.996485
0.998054
0.996726
0.996469
0.997007
0.998006
0.997002
0.996657
0.997626
0.997589
0.996728
0.997115
0.99786
0.997533
0.997475
0.997864
0.998108
0.997743
0.997738
0.998158
0.998386
0.999103
0.999991
1.00046
1.00036
0.999912
0.999708
1.00009
1.00091
1.00157
1.0018
1.00233
1.00242
1.00185
1.00206
1.0026
1.00254
1.00215
1.00287
1.00329
1.00248
1.00246
1.00322
1.00299
1.00242
1.00308
1.00346
1.0035
1.00238
1.00331
0.99882
0.995229
0.996149
0.999205
0.996918
0.995473
0.99799
0.998418
0.996064
0.996371
0.99867
0.997346
0.996471
0.997819
0.998275
0.997351
0.99714
0.998295
0.998048
0.997651
0.998703
0.999686
1.00012
1.00061
1.00065
0.99986
0.999648
1.0001
1.00045
1.00122
1.00234
1.00216
1.00159
1.0026
1.00277
1.00192
1.00209
1.00349
1.00289
1.0013
1.00342
1.00408
1.00177
1.00194
1.00477
1.0033
1.001
1.00392
1.00513
1.00139
0.995674
0.996825
0.996716
0.997132
0.99675
0.996533
0.99718
0.997101
0.997015
0.996977
0.997349
0.997759
0.997152
0.997152
0.997617
0.997835
0.997735
0.997886
0.998266
0.99846
0.998823
0.999659
1.00042
1.0009
1.00072
0.999893
0.999611
0.999915
1.00049
1.0013
1.00168
1.00171
1.00206
1.00236
1.00232
1.00237
1.00286
1.00301
1.00236
1.00276
1.0031
1.00294
1.00312
1.00309
1.00333
1.00328
1.00347
1.00329
1.0032
1.00496
0.995026
0.99946
0.997748
0.994365
0.99695
0.999326
0.995857
0.995546
0.998639
0.998085
0.996137
0.996919
0.998357
0.996965
0.996722
0.998064
0.997977
0.997366
0.997953
0.998798
0.998931
0.999436
1.00066
1.00088
1.00046
1.00032
0.999841
0.999736
1.0008
1.00134
1.00123
1.00192
1.00267
1.0021
1.00178
1.00327
1.00333
1.00172
1.00287
1.00398
1.00225
1.00128
1.00455
1.00461
1.00097
1.00316
1.00592
1.00259
1.00109
1.00514
0.998103
0.99611
0.995583
0.99799
0.996967
0.995737
0.997441
0.996924
0.996745
0.996765
0.997635
0.997207
0.996669
0.997636
0.997887
0.997225
0.997462
0.998174
0.99828
0.998378
0.999292
1.00015
1.00052
1.00074
1.00066
1.00024
1.00002
1.00016
1.00043
1.00093
1.00166
1.00185
1.0019
1.00234
1.00284
1.00247
1.00239
1.00336
1.00303
1.00237
1.00322
1.00352
1.00324
1.00264
1.00472
1.00362
1.00208
1.00484
1.00479
1.00209
0.998654
0.993147
0.9956
1.00004
0.995936
0.994444
0.9976
0.998665
0.995524
0.996479
0.998747
0.99736
0.996229
0.997482
0.998227
0.99708
0.997211
0.998297
0.998272
0.998268
0.999543
1.00036
1.00044
1.00092
1.00095
1.00011
0.999892
1.00029
1.00022
1.00072
1.00192
1.00186
1.00154
1.00277
1.00329
1.00205
1.00239
1.00391
1.00313
1.00124
1.00347
1.00487
1.00167
1.00226
1.00583
1.00448
1.00062
1.00468
1.00725
1.00241
0.992978
0.999462
0.998144
0.993705
0.996982
0.998662
0.996548
0.995021
0.998189
0.997618
0.996064
0.996949
0.99799
0.997143
0.996618
0.997749
0.998026
0.997569
0.998075
0.998957
0.999618
1.00038
1.0009
1.00097
1.00071
1.00042
1.00019
1.00013
1.00037
1.00084
1.0012
1.00188
1.00249
1.00217
1.00218
1.00342
1.00329
1.00219
1.00286
1.00411
1.00278
1.0018
1.0051
1.00428
1.00172
1.00312
1.00742
1.0026
1.001
1.00847
0.995411
0.999957
0.995929
0.992963
0.996839
0.998808
0.995745
0.9954
0.997784
0.99741
0.99598
0.99714
0.998111
0.99714
0.99681
0.997522
0.9978
0.997782
0.998319
0.999016
0.999556
1.00038
1.00104
1.00082
1.00045
1.00066
1.00039
1.00001
1.00038
1.00088
1.00106
1.00189
1.00266
1.00242
1.00242
1.00344
1.00341
1.00199
1.0027
1.0043
1.00292
1.0019
1.00466
1.00499
1.00171
1.00334
1.0074
1.00451
1.00175
1.00519
1.00035
0.989446
0.993467
1.00128
0.99656
0.992722
0.998067
0.998804
0.995758
0.995761
0.99865
0.997747
0.99603
0.997494
0.998196
0.997032
0.997168
0.998514
0.99841
0.998527
0.999886
1.00087
1.00105
1.00123
1.00105
1.00041
1.00015
1.00033
1.00027
1.00065
1.00168
1.00186
1.00158
1.00278
1.00344
1.00228
1.00239
1.00419
1.00286
1.00123
1.00401
1.00507
1.00183
1.00179
1.00775
1.00461
0.999329
1.00705
1.0113
0.999117
0.994207
0.993342
0.995283
0.997881
0.995554
0.995363
0.997364
0.996744
0.996176
0.996917
0.997491
0.996888
0.996862
0.997387
0.997157
0.997083
0.997705
0.99812
0.99819
0.998948
1.00013
1.00077
1.0009
1.00117
1.00094
1.00016
0.999987
1.00042
1.00034
1.00051
1.00152
1.0022
1.00231
1.00288
1.00351
1.00314
1.00264
1.00334
1.00329
1.00224
1.00296
1.00447
1.00364
1.00247
1.00478
1.00567
1.00244
1.00497
1.00793
1.00861
0.992063
1.00532
0.997682
0.989802
0.997152
1.00006
0.994951
0.994444
0.998649
0.997969
0.995509
0.997291
0.99866
0.996953
0.996186
0.997817
0.997958
0.997481
0.998511
0.999401
0.99965
1.00061
1.00158
1.00149
1.00115
1.00082
1.00015
0.999772
1.00037
1.00077
1.00064
1.00168
1.00309
1.0025
1.00222
1.00427
1.00371
1.00114
1.00249
1.00526
1.00213
1.00087
1.00649
1.00623
0.999034
1.00401
1.01235
1.0011
0.996329
1.02258

VECTORS velocity double
3.7753e-007 9.4867e-007 0
-1.24167e-006 1.85823e-007 0
-1.33285e-006 -2.43325e-007 0
-1.28455e-006 -3.97361e-007 0
-1.2076e-006 -4.85745e-007 0
-1.09515e-006 -5.74253e-007 0
-9.5755e-007 -6.58472e-007 0
-7.29078e-007 -6.74081e-007 0
-3.81707e-007 -6.1766e-007 0
2.24709e-009 -5.57511e-007 0
3.39283e-007 -4.77306e-007 0
6.82183e-007 -2.98731e-007 0
1.01772e-006 -1.3093e-007 0
1.14106e-006 -8.70282e-008 0
1.03062e-006 1.04546e-008 0
8.91383e-007 1.94811e-007 0
6.62381e-007 2.00021e-007 0
1.60222e-007 1.18587e-007 0
-4.2867e-007 2.04142e-007 0
-9.05876e-007 2.37586e-007 0
-1.39964e-006 9.31472e-008 0
-1.92541e-006 4.50598e-008 0
-2.29535e-006 7.9077e-008 0
-2.49014e-006 1.93563e-009 0
-2.56513e-006 -6.05238e-008 0
-2.45923e-006 -3.99989e-008 0
-2.17517e-006 -9.49186e-008 0
-1.77869e-006 -1.5618e-007 0
-1.2184e-006 -9.99781e-008 0
-5.18604e-007 -1.22658e-007 0
1.29118e-007 -2.3771e-007 0
7.40108e-007 -1.71651e-007 0
1.44141e-006 -5.56474e-008 0
2.03161e-006 -1.09887e-007 0
2.32558e-006 -7.89725e-008 0
2.51022e-006 1.26368e-007 0
2.64683e-006 2.3749e-007 0
2.53106e-006 2.89134e-007 0
2.18795e-006 4.58735e-007 0
1.82521e-006 6.32273e-007 0
1.45805e-006 7.01992e-007 0
1.03701e-006 7.47728e-007 0
6.49318e-007 7.8647e-007 0
3.80571e-007 7.51471e-007 0
2.06683e-007 6.48131e-007 0
7.83955e-008 5.33909e-007 0
9.90634e-008 4.99634e-007 0
3.60822e-007 8.55138e-008 0
-1.49043e-007 -6.83889e-007 0
9.45775e-007 -8.11352e-007 0
1.47862e-006 5.08095e-008 0
1.86774e-006 5.94391e-007 0
5.43206e-007 -2.12127e-007 0
6.31654e-008 -5.6035e-007 0
-1.8782e-007 -7.25395e-007 0
-3.34152e-007 -7.53263e-007 0
-3.37976e-007 -7.01247e-007 0
-1.40094e-007 -5.31154e-007 0
1.62779e-007 -4.09285e-007 0
4.24603e-007 -3.48104e-007 0
7.44046e-007 -1.30341e-007 0
1.13065e-006 3.812e-008 0
1.22579e-006 -1.82622e-007 0
9.90599e-007 -2.89453e-007 0
8.86292e-007 -3.72435e-008 0
7.7281e-007 -2.61208e-007 0
1.96654e-007 -7.44616e-007 0
-3.78941e-007 -4.6324e-007 0
-5.10982e-007 -2.38568e-007 0
-7.3948e-007 -7.13902e-007 0
-1.19365e-006 -6.59798e-007 0
-1.32402e-006 -1.66964e-007 0
-1.2078e-006 -2.26879e-007 0
-1.2281e-006 -2.82301e-007 0
-1.29729e-006 -4.9555e-008 0
-1.24216e-006 1.4753e-007 0
-1.06896e-006 3.80447e-007 0
-9.68699e-007 3.14202e-007 0
-1.04247e-006 2.48475e-007 0
-9.08887e-007 7.3983e-007 0
-4.98694e-007 7.80076e-007 0
-3.68062e-007 2.93351e-007 0
-3.75387e-007 5.1835e-007 0
3.37967e-008 7.96348e-007 0
4.22472e-007 3.06343e-007 0
3.4023e-007 8.16042e-008 0
2.60242e-007 3.33866e-007 0
3.36897e-007 2.23911e-007 0
1.18378e-007 -9.21165e-010 0
-3.48916e-007 1.61057e-007 0
-7.03302e-007 3.6892e-007 0
-9.55473e-007 4.18975e-007 0
-1.20939e-006 5.28351e-007 0
-1.32958e-006 6.84505e-007 0
-1.23277e-006 7.24343e-007 0
-9.92702e-007 6.74218e-007 0
-5.27744e-007 4.50096e-007 0
1.7464e-008 -1.5133e-007 0
4.93794e-007 -6.48514e-007 0
3.00467e-007 -8.30962e-008 0
4.25044e-008 5.82518e-008 0
-5.63485e-008 -5.58957e-007 0
6.50237e-007 -1.77495e-007 0
3.35602e-007 -4.64819e-007 0
5.15407e-008 -6.87999e-007 0
-1.17611e-007 -6.59494e-007 0
1.79053e-007 -3.50739e-007 0
5.31549e-007 -1.04833e-007 0
7.24866e-007 -5.26365e-008 0
8.80041e-007 1.94318e-007 0
1.12885e-006 4.31455e-007 0
8.99473e-007 -8.76106e-008 0
1.9382e-007 -5.22229e-007 0
-6.76819e-008 -5.59797e-008 0
-9.45638e-008 -4.48174e-007 0
-8.79427e-007 -1.61657e-006 0
-1.43178e-006 -9.8347e-007 0
-8.30267e-007 -1.84273e-007 0
-5.4611e-007 -1.47686e-006 0
-9.67208e-007 -1.49817e-006 0
-4.24693e-007 3.14648e-007 0
6.21911e-007 -1.75341e-007 0
6.31686e-007 -1.26771e-006 0
5.60496e-007 2.97446e-007 0
1.1905e-006 8.88003e-007 0
1.11947e-006 -6.93674e-007 0
3.64436e-007 -1.01047e-007 0
3.35771e-007 1.4199e-006 0
2.35128e-007 2.52533e-007 0
-8.86374e-007 -2.96535e-007 0
-1.46356e-006 1.46267e-006 0
-1.04104e-006 1.36781e-006 0
-1.31491e-006 2.7054e-009 0
-1.90317e-006 7.56314e-007 0
-1.32452e-006 1.35998e-006 0
-5.10897e-007 1.68931e-007 0
-4.74511e-007 -2.30207e-007 0
-2.24876e-007 2.49446e-007 0
4.5753e-007 -1.54813e-007 0
6.55175e-007 -6.3593e-007 0
3.63074e-007 -3.6027e-007 0
1.57207e-007 -7.24226e-008 0
-8.46078e-008 1.90846e-008 0
-4.79256e-007 2.93484e-007 0
-8.15562e-007 6.19018e-007 0
-8.22413e-007 7.04433e-007 0
-2.36923e-007 4.56444e-007 0
-7.69191e-007 1.60445e-007 0
4.94308e-008 2.67462e-007 0
2.50839e-007 3.55282e-007 0
1.4184e-006 -2.09556e-007 0
9.43758e-007 -2.43197e-007 0
-8.92506e-008 -6.44337e-007 0
-9.36488e-007 -6.4622e-007 0
-6.98679e-007 -6.45275e-007 0
-2.87139e-007 -2.47101e-007 0
2.54118e-007 1.01081e-007 0
4.99389e-007 1.03713e-007 0
7.09629e-007 2.4923e-007 0
9.61472e-007 5.49249e-007 0
6.41216e-007 -2.06032e-007 0
-4.03855e-007 -1.05363e-006 0
-5.24937e-007 -1.81776e-007 0
-1.96529e-007 -3.11675e-007 0
-1.10875e-006 -2.334e-006 0
-1.66508e-006 -1.08661e-006 0
-2.62079e-007 8.76299e-007 0
1.06028e-007 -1.74293e-006 0
-1.03489e-006 -1.97156e-006 0
-5.71345e-007 1.53921e-006 0
5.93046e-007 1.09713e-008 0
-1.13576e-007 -1.88335e-006 0
-1.10765e-006 6.82147e-007 0
-8.92158e-007 4.4597e-007 0
-4.63625e-007 -7.2726e-007 0
-4.87696e-007 6.20311e-007 0
-1.00007e-006 -6.49603e-007 0
-1.30037e-006 -8.28868e-007 0
-2.87664e-007 1.82118e-006 0
5.08351e-007 -1.20528e-007 0
-5.70085e-007 -1.66485e-006 0
-8.95066e-007 1.91183e-006 0
4.8237e-007 1.7011e-006 0
3.63256e-007 -9.51253e-007 0
-8.39909e-007 1.0046e-006 0
-9.24219e-008 2.27811e-006 0
1.00512e-006 2.66721e-007 0
7.92957e-007 1.29464e-007 0
9.44427e-007 1.02531e-006 0
1.97714e-006 2.30641e-007 0