# vtk DataFile Version 4.0
SiwiRVisFile
ASCII
DATASET STRUCTURED_POINTS
DIMENSIONS 5 5 1
ORIGIN 0 0 0
SPACING 1 1 1
POINT_DATA 25

SCALARS flags double 1
LOOKUP_TABLE default
1
1
1
1
1
1
1
1
1
1
1
1
1
1
1
1
1
1
1
1
1
1
1
1
1

SCALARS density double 1
LOOKUP_TABLE default
0.984769
1.03804
0.999787
0.962219
1.01619
0.987617
1.03235
1.0004
0.968273
1.01107
1.02234
0.948687
0.999196
1.05105
0.976888
1.0025
0.984745
0.998381
1.01331
0.997746
0.974681
1.05985
0.99865
0.940194
1.03107

VECTORS velocity double
-0.00135142 0.00220401 0
-0.00160934 -0.00229922 0
0.00281924 -0.000918937 0
-0.000396454 0.00273119 0
-0.00112215 -0.00243628 0
0.000948415 0.00450478 0
-0.00656533 -0.000722672 0
-0.0130927 -0.000270873 0
-0.00653905 0.00026855 0
0.00166928 -0.00270802 0
-0.00110246 0.00531318 0
-0.0127323 0.0185295 0
-0.0214878 -0.000564713 0
-0.0128703 -0.0202488 0
-0.00194228 -0.00525453 0
-0.00567542 0.0160102 0
-0.00885374 0.0187057 0
-0.00367328 -0.000163933 0
-0.00878002 -0.0191969 0
-0.00811009 -0.0153877 0
0.0227108 0.0148243 0
0.047278 0.00479531 0
0.0495965 -0.000318944 0
0.0482402 -0.00316276 0
0.0169848 -0.0121542 0
