# vtk DataFile Version 4.0
SiwiRVisFile
ASCII
DATASET STRUCTURED_POINTS
DIMENSIONS 5 5 1
ORIGIN 0 0 0
SPACING 1 1 1
POINT_DATA 25

SCALARS flags double 1
LOOKUP_TABLE default
1
1
1
1
1
1
1
1
1
1
1
1
1
1
1
1
1
1
1
1
1
1
1
1
1

SCALARS density double 1
LOOKUP_TABLE default
0.98593
1.03779
0.999892
0.962279
1.01458
0.988956
1.0327
1.00047
0.968213
1.00966
1.0225
0.9477
0.999235
1.0515
0.976976
1.00285
0.984987
0.998186
1.01284
0.997679
0.976337
1.06022
0.998775
0.939414
1.03033

VECTORS velocity double
-0.00155534 0.00181705 0
-0.00214089 -0.00240603 0
0.00262139 -0.000894816 0
-0.000785537 0.00290661 0
-0.00131251 -0.002155 0
0.000540591 0.00394933 0
-0.0066545 -0.000616706 0
-0.0135227 -0.000303671 0
-0.00657745 0.00027826 0
0.00129333 -0.00223459 0
-0.00128251 0.0047034 0
-0.0131049 0.0184991 0
-0.0212452 -0.00062146 0
-0.0133836 -0.0199011 0
-0.0021191 -0.0049224 0
-0.0058076 0.015876 0
-0.00960894 0.0187561 0
-0.00459758 -0.000200079 0
-0.00955838 -0.0190731 0
-0.00821988 -0.0153909 0
0.0225126 0.0150302 0
0.0472487 0.00501581 0
0.0493558 -0.000358557 0
0.0481497 -0.00321836 0
0.0169229 -0.0124537 0
