# vtk DataFile Version 4.0
SiwiRVisFile
ASCII
DATASET STRUCTURED_POINTS
DIMENSIONS 50 50 1
ORIGIN 0 0 0
SPACING 1 1 1
POINT_DATA 2500

SCALARS flags double 1
LOOKUP_TABLE default
1
1
1
1
1
1
1
1
1
1
1
1
1
1
1
1
1
1
1
1
1
1
1
1
1
1
1
1
1
1
1
1
1
1
1
1
1
1
1
1
1
1
1
1
1
1
1
1
1
1
1
1
1
1
1
1
1
1
1
1
1
1
1
1
1
1
1
1
1
1
1
1
1
1
1
1
1
1
1
1
1
1
1
1
1
1
1
1
1
1
1
1
1
1
1
1
1
1
1
1
1
1
1
1
1
1
1
1
1
1
1
1
1
1
1
1
1
1
1
1
1
1
1
1
1
1
1
1
1
1
1
1
1
1
1
1
1
1
1
1
1
1
1
1
1
1
1
1
1
1
1
1
1
1
1
1
1
1
1
1
1
1
1
1
1
1
1
1
1
1
1
1
1
1
1
1
1
1
1
1
1
1
1
1
1
1
1
1
1
1
1
1
1
1
1
1
1
1
1
1
1
1
1
1
1
1
1
1
1
1
1
1
1
1
1
1
1
1
1
1
1
1
1
1
1
1
1
1
1
1
1
1
1
1
1
1
1
1
1
1
1
1
1
1
1
1
1
1
1
1
1
1
1
1
1
1
1
1
1
1
1
1
1
1
1
1
1
1
1
1
1
1
1
1
1
1
1
1
1
1
1
1
1
1
1
1
1
1
1
1
1
1
1
1
1
1
1
1
1
1
1
1
1
1
1
1
1
1
1
1
1
1
1
1
1
1
1
1
1
1
1
1
1
1
1
1
1
1
1
1
1
1
1
1
1
1
1
1
1
1
1
1
1
1
1
1
1
1
1
1
1
1
1
1
1
1
1
1
1
1
1
1
1
1
1
1
1
1
1
1
1
1
1
1
1
1
1
1
1
1
1
1
1
1
1
1
1
1
1
1
1
1
1
1
1
1
1
1
1
1
1
1
1
1
1
1
1
1
1
1
1
1
1
1
1
1
1
1
1
1
1
1
1
1
1
1
1
1
1
1
1
1
1
1
1
1
1
1
1
1
1
1
1
1
1
1
1
1
1
1
1
1
1
1
1
1
1
1
1
1
1
1
1
1
1
1
1
1
1
1
1
1
1
1
1
1
1
1
1
1
1
1
1
1
1
1
1
1
1
1
1
1
1
1
1
1
1
1
1
1
1
1
1
1
1
1
1
1
1
1
1
1
1
1
1
1
1
1
1
1
1
1
1
1
1
1
1
1
1
1
1
1
1
1
1
1
1
1
1
1
1
1
1
1
1
1
1
1
1
1
1
1
1
1
1
1
1
1
1
1
1
1
1
1
1
1
1
1
1
1
1
1
1
1
1
1
1
1
1
1
1
1
1
1
1
1
1
1
1
1
1
1
1
1
1
1
1
1
1
1
1
1
1
1
1
1
1
1
1
1
1
1
1
1
1
1
1
1
1
1
1
1
1
1
1
1
1
1
1
1
1
1
1
1
1
1
1
1
1
1
1
1
1
1
1
1
1
1
1
1
1
1
1
1
1
1
1
1
1
1
1
1
1
1
1
1
1
1
1
1
1
1
1
1
1
1
1
1
1
1
1
1
1
1
1
1
1
1
1
1
1
1
1
1
1
1
1
1
1
1
1
1
1
1
1
1
1
1
1
1
1
1
1
1
1
1
1
1
1
1
1
1
1
1
1
1
1
1
1
1
1
1
1
1
1
1
1
1
1
1
1
1
1
1
1
1
1
1
1
1
1
1
1
1
1
1
1
1
1
1
1
1
1
1
1
1
1
1
1
1
1
1
1
1
1
1
1
1
1
1
1
1
1
1
1
1
1
1
1
1
1
1
1
1
1
1
1
1
1
1
1
1
1
1
1
1
1
1
1
1
1
1
1
1
1
1
1
1
1
1
1
1
1
1
1
1
1
1
1
1
1
1
1
1
1
1
1
1
1
1
1
1
1
1
1
1
1
1
1
1
1
1
1
1
1
1
1
1
1
1
1
1
1
1
1
1
1
1
1
1
1
1
1
1
1
1
1
1
1
1
1
1
1
1
1
1
1
1
1
1
1
1
1
1
1
1
1
1
1
1
1
1
1
1
1
1
1
1
1
1
1
1
1
1
1
1
1
1
1
1
1
1
1
1
1
1
1
1
1
1
1
1
1
1
1
1
1
1
1
1
1
1
1
1
1
1
1
1
1
1
1
1
1
1
1
1
1
1
1
1
1
1
1
1
1
1
1
1
1
1
1
1
1
1
1
1
1
1
1
1
1
1
1
1
1
1
1
1
1
1
1
1
1
1
1
1
1
1
1
1
1
1
1
1
1
1
1
1
1
1
1
1
1
1
1
1
1
1
1
1
1
1
1
1
1
1
1
1
1
1
1
1
1
1
1
1
1
1
1
1
1
1
1
1
1
1
1
1
1
1
1
1
1
1
1
1
1
1
1
1
1
1
1
1
1
1
1
1
1
1
1
1
1
1
1
1
1
1
1
1
1
1
1
1
1
1
1
1
1
1
1
1
1
1
1
1
1
1
1
1
1
1
1
1
1
1
1
1
1
1
1
1
1
1
1
1
1
1
1
1
1
1
1
1
1
1
1
1
1
1
1
1
1
1
1
1
1
1
1
1
1
1
1
1
1
1
1
1
1
1
1
1
1
1
1
1
1
1
1
1
1
1
1
1
1
1
1
1
1
1
1
1
1
1
1
1
1
1
1
1
1
1
1
1
1
1
1
1
1
1
1
1
1
1
1
1
1
1
1
1
1
1
1
1
1
1
1
1
1
1
1
1
1
1
1
1
1
1
1
1
1
1
1
1
1
1
1
1
1
1
1
1
1
1
1
1
1
1
1
1
1
1
1
1
1
1
1
1
1
1
1
1
1
1
1
1
1
1
1
1
1
1
1
1
1
1
1
1
1
1
1
1
1
1
1
1
1
1
1
1
1
1
1
1
1
1
1
1
1
1
1
1
1
1
1
1
1
1
1
1
1
1
1
1
1
1
1
1
1
1
1
1
1
1
1
1
1
1
1
1
1
1
1
1
1
1
1
1
1
1
1
1
1
1
1
1
1
1
1
1
1
1
1
1
1
1
1
1
1
1
1
1
1
1
1
1
1
1
1
1
1
1
1
1
1
1
1
1
1
1
1
1
1
1
1
1
1
1
1
1
1
1
1
1
1
1
1
1
1
1
1
1
1
1
1
1
1
1
1
1
1
1
1
1
1
1
1
1
1
1
1
1
1
1
1
1
1
1
1
1
1
1
1
1
1
1
1
1
1
1
1
1
1
1
1
1
1
1
1
1
1
1
1
1
1
1
1
1
1
1
1
1
1
1
1
1
1
1
1
1
1
1
1
1
1
1
1
1
1
1
1
1
1
1
1
1
1
1
1
1
1
1
1
1
1
1
1
1
1
1
1
1
1
1
1
1
1
1
1
1
1
1
1
1
1
1
1
1
1
1
1
1
1
1
1
1
1
1
1
1
1
1
1
1
1
1
1
1
1
1
1
1
1
1
1
1
1
1
1
1
1
1
1
1
1
1
1
1
1
1
1
1
1
1
1
1
1
1
1
1
1
1
1
1
1
1
1
1
1
1
1
1
1
1
1
1
1
1
1
1
1
1
1
1
1
1
1
1
1
1
1
1
1
1
1
1
1
1
1
1
1
1
1
1
1
1
1
1
1
1
1
1
1
1
1
1
1
1
1
1
1
1
1
1
1
1
1
1
1
1
1
1
1
1
1
1
1
1
1
1
1
1
1
1
1
1
1
1
1
1
1
1
1
1
1
1
1
1
1
1
1
1
1
1
1
1
1
1
1
1
1
1
1
1
1
1
1
1
1
1
1
1
1
1
1
1
1
1
1
1
1
1
1
1
1
1
1
1
1
1
1
1
1
1
1
1
1
1
1
1
1
1
1
1
1
1
1
1
1
1
1
1
1
1
1
1
1
1
1
1
1
1
1
1
1
1
1
1
1
1
1
1
1
1
1
1
1
1
1
1
1
1
1
1
1
1
1
1
1
1
1
1
1
1
1
1
1
1
1
1
1
1
1
1
1
1
1
1
1
1
1
1
1
1
1
1
1
1
1
1
1
1
1
1
1
1
1
1
1
1
1
1
1
1
1
1
1
1
1
1
1
1
1
1
1
1
1
1
1
1
1
1
1
1
1
1
1
1
1
1
1
1
1
1
1
1
1
1
1
1
1
1
1
1
1
1
1
1
1
1
1
1
1
1
1
1
1
1
1
1
1
1
1
1
1
1
1
1
1
1
1
1
1
1
1
1
1
1
1
1
1
1
1
1
1
1
1
1
1
1
1
1
1
1
1
1
1
1
1
1
1
1
1
1
1
1
1
1
1
1
1
1
1
1
1
1
1
1
1
1
1
1
1
1
1
1
1
1
1
1
1
1
1
1
1
1
1
1
1
1
1
1
1
1
1
1
1
1
1
1
1
1
1
1
1
1
1
1
1
1
1
1
1
1
1
1
1
1
1
1
1
1
1
1
1
1
1
1
1
1
1
1
1
1
1
1
1
1
1
1
1
1
1
1
1
1
1
1
1
1
1
1
1
1
1
1
1
1
1
1
1
1
1
1
1
1
1
1
1
1
1
1
1
1
1
1
1
1
1
1
1
1
1
1
1
1
1
1
1
1
1
1
1
1
1
1
1
1
1
1
1
1
1
1
1
1
1
1
1
1
1
1
1
1
1
1
1
1
1
1
1
1
1
1
1
1
1
1
1
1
1
1
1
1
1
1
1
1
1
1
1
1
1
1
1
1
1
1
1
1
1
1
1
1
1
1
1
1
1
1
1
1
1
1
1
1
1
1
1
1
1
1
1
1
1
1
1
1
1
1
1
1
1
1
1
1
1
1
1
1
1
1
1
1
1
1
1
1
1
1
1
1
1
1
1
1
1
1
1
1
1
1
1
1
1
1
1
1
1
1
1
1
1
1
1
1
1
1
1
1
1
1
1
1
1
1
1
1
1
1
1
1
1
1
1
1
1
1
1
1
1
1
1
1
1
1
1
1
1
1
1
1
1
1
1
1
1
1
1
1
1
1
1
1
1
1
1
1
1
1
1
1
1
1
1
1
1
1
1
1
1
1
1
1
1
1
1
1
1
1
1
1
1
1
1
1
1
1
1
1
1
1
1
1
1
1
1
1
1
1
1
1
1
1
1
1
1
1
1
1
1
1
1
1
1
1
1
1
1
1
1
1
1
1
1
1
1
1
1
1
1
1
1
1
1
1
1
1
1
1
1
1
1
1
1
1
1
1
1
1
1
1
1
1
1
1
1
1
1
1
1
1
1
1
1
1
1
1
1
1
1
1
1
1
1
1
1
1
1
1
1
1
1
1
1
1
1
1
1
1
1
1
1
1
1
1
1
1
1
1
1
1
1
1
1
1
1
1
1
1
1
1
1
1
1
1
1
1
1
1
1
1
1
1
1
1
1
1
1
1
1
1
1
1
1
1
1
1
1
1
1
1
1
1
1
1
1
1
1
1
1
1
1
1
1
1
1
1
1
1
1
1
1
1
1
1
1
1
1
1
1
1
1
1
1
1
1
1
1
1
1
1
1
1
1
1
1
1
1
1
1
1
1
1
1
1
1
1
1
1
1
1
1
1
1
1
1
1
1
1
1
1
1
1
1
1
1
1
1
1
1
1
1
1
1
1
1
1
1
1

SCALARS density double 1
LOOKUP_TABLE default
0.999999
0.999997
0.999998
1
1
0.999993
1.00001
1.00001
0.999987
0.999996
1.00002
0.999993
0.999977
1.00002
1.00001
0.999968
1
1.00004
0.999977
0.999971
1.00004
1.00001
0.999946
1.00002
1.00005
0.999953
0.999978
1.00005
0.999993
0.999955
1.00003
1.00002
0.999963
0.999999
1.00003
0.999987
0.99998
1.00002
1.00001
0.99998
1
1.00001
0.999991
0.999993
1.00001
1
0.999996
1
1
0.999999
0.999997
0.999998
1
0.999999
0.999992
1
1.00001
0.999987
0.999995
1.00002
0.999994
0.99998
1.00002
1.00001
0.999977
0.999996
1.00002
0.999997
0.999981
1.00001
1.00002
0.999993
0.999986
1.00001
1.00001
0.999989
0.999989
1.00001
1.00001
0.999984
0.999991
1.00002
1
0.999976
1
1.00002
0.999987
0.999981
1.00002
1.00001
0.99998
1
1.00001
0.999992
0.999996
1.00001
1
0.999998
1
1.00001
0.999996
1
0.999999
0.999993
1
1.00001
0.999989
0.999996
1.00002
0.999993
0.999981
1.00002
1.00001
0.999972
1
1.00004
0.999983
0.999962
1.00004
1.00003
0.999942
0.999997
1.00006
0.999972
0.999948
1.00005
1.00003
0.99994
1
1.00006
0.999976
0.999961
1.00004
1.00002
0.999962
0.999999
1.00003
0.999988
0.999981
1.00002
1.00001
0.999983
1
1.00001
0.999992
0.999995
1.00001
1
0.999997
1
0.999999
0.999995
0.99999
1
1.00001
0.999988
0.999997
1.00002
0.999992
0.999988
1.00002
0.999999
0.99999
1.00001
0.999995
0.999992
1.00001
0.999996
0.999985
1.00001
1.00001
0.999988
1
1.00001
0.999996
1
0.999996
0.999998
1.00001
0.999992
0.99999
1.00001
1
0.999988
1.00001
1
0.999989
1.00001
1
0.999982
1.00001
1.00001
0.999983
1
1.00001
0.999993
0.999999
1.00001
1.00001
0.999999
0.999994
0.999986
0.999997
1
0.999985
0.999991
1.00002
0.999995
0.999977
1.00002
1.00002
0.999972
0.999986
1.00004
1
0.999951
1.00002
1.00004
0.999962
0.999978
1.00004
0.999999
0.999961
1.00002
1.00003
0.999971
0.999982
1.00004
1
0.999958
1.00002
1.00004
0.999963
0.999982
1.00004
1
0.999963
1.00001
1.00003
0.999983
0.999982
1.00002
1.00001
0.999984
1.00001
1.00002
0.999999
1
1.00001
1.00001
0.999982
0.999994
0.999997
0.999978
0.999989
1.00001
0.99998
0.999989
1.00002
0.999982
0.999989
1.00003
0.999985
0.999971
1.00003
1.00001
0.99997
1
1.00002
0.999989
0.999989
1.00001
1
0.999992
0.999995
1
1.00001
0.999995
0.999993
1.00001
1.00001
0.999978
0.999999
1.00003
0.999985
0.999973
1.00003
1.00001
0.999966
1.00001
1.00002
0.999977
1.00001
1.00002
0.999989
1.00001
1.00002
1
1
1.00002
0.99999
0.999994
0.999976
0.999975
1
0.999992
0.999966
0.999998
1.00003
0.999988
0.999964
1.00002
1.00003
0.999961
0.999984
1.00005
0.99999
0.999971
1.00003
1.00001
0.999975
1
1.00002
0.99999
0.999988
1.00001
1.00001
0.999981
0.999997
1.00002
0.99999
0.999974
1.00003
1.00001
0.999958
1.00001
1.00003
0.99997
0.999982
1.00003
1.00001
0.99998
0.999999
1.00003
1.00001
0.999999
1.00002
1.00002
1.00001
1.00001
0.999988
0.999951
0.999973
0.999994
0.999951
0.999965
1.00002
0.99996
0.999954
1.00004
1
0.999952
1.00001
1.00002
0.999989
0.999982
1.00001
1.00001
0.999987
0.999985
1.00002
1.00001
0.999974
1.00001
1.00002
0.999977
0.999989
1.00003
0.999992
0.99998
1.00001
1.00002
0.999986
0.999989
1.00002
1.00001
0.999972
0.999993
1.00004
0.999994
0.99996
1.00004
1.00004
0.999978
1.00003
1.00005
1.00001
1.00002
1.00005
1.00001
0.999947
0.99993
0.999959
0.999963
0.999932
0.999933
0.99998
0.999981
0.999936
0.999962
1.00003
0.99998
0.999964
1.00003
1
0.999973
1.00001
1.00001
0.999981
0.999988
1.00002
1
0.999968
1.00001
1.00003
0.999975
0.999986
1.00003
0.999997
0.999976
1.00001
1.00002
0.999987
0.999989
1.00002
0.999999
0.999974
1.00003
1.00001
0.999976
1.00004
1.00005
1.00002
1.00002
1.00006
1.00006
1.00004
1.00003
1.00006
1.00005
0.999891
0.999942
0.999885
0.999871
0.999967
0.999913
0.999854
0.999955
0.999979
0.999922
0.999943
1
1
0.999954
0.999995
1.00004
0.999975
0.999973
1.00004
1.00002
0.999952
1
1.00005
0.999975
0.999962
1.00004
1.00003
0.999951
0.999992
1.00005
0.999982
0.99996
1.00002
1.00003
0.999959
0.999998
1.00005
0.999993
0.99999
1.00005
1.00007
1.00001
1.00004
1.00013
1.00007
1.00002
1.00011
1.0001
1.00005
1.00009
0.99983
0.999858
0.999833
0.999786
0.999826
0.999868
0.999844
0.999819
0.999895
0.999913
0.99989
0.999958
0.999964
0.999956
0.999987
0.999997
0.999998
0.999977
1.00001
1.00002
0.999976
0.999992
1.00002
0.99999
0.999971
1.00002
1.00001
0.999976
1
1.00002
0.999981
0.999989
1.00002
0.999997
1
1.00001
1.00003
1.00003
1.00003
1.00009
1.00007
1.00009
1.00016
1.00012
1.00011
1.00015
1.00017
1.00014
1.00012
1.00014
0.999747
0.999608
0.999708
0.999717
0.999613
0.999663
0.999757
0.999716
0.999712
0.999806
0.999856
0.999817
0.999886
0.99999
0.999925
0.99993
1.00002
1.00003
0.999938
0.999979
1.00006
0.99998
0.999949
1.00003
1.00004
0.999958
0.999966
1.00005
1.00002
0.99994
1.00001
1.00006
0.999972
0.99997
1.00005
1.00007
0.999998
1.00009
1.00016
1.00012
1.00016
1.00024
1.00024
1.00019
1.00027
1.00032
1.00022
1.00023
1.00033
1.0002
0.999543
0.999398
0.999406
0.999452
0.999462
0.999413
0.999473
0.999532
0.999531
0.999604
0.999662
0.999714
0.999777
0.999827
0.999916
0.999915
0.999947
0.999989
0.999978
0.999996
1
1
1.00001
0.999993
0.999998
1
1
0.99999
0.999995
0.999995
0.999991
1.00001
1
1.00004
1.00007
1.00006
1.00014
1.00018
1.00023
1.00028
1.00033
1.00037
1.00036
1.00042
1.00046
1.0004
1.00043
1.00046
1.00045
1.00036
0.999098
0.999215
0.999122
0.999003
0.999134
0.999123
0.99911
0.999186
0.999282
0.999269
0.999352
0.999527
0.999558
0.999613
0.999753
0.999869
0.999873
0.99987
1.00001
1.00001
0.999922
0.999984
1.00006
0.999988
0.999928
1.00006
1.00002
0.999936
1
1.00007
0.999995
0.999966
1.00011
1.0001
1.0001
1.0002
1.00031
1.00036
1.00037
1.00051
1.00058
1.00054
1.00061
1.00067
1.00065
1.00063
1.00075
1.00065
1.00056
1.00068
0.998744
0.998744
0.998706
0.998611
0.998706
0.998708
0.998712
0.998765
0.998835
0.998918
0.999007
0.99906
0.999233
0.999402
0.999468
0.999611
0.99974
0.999867
0.999844
0.999932
1.00002
0.999966
0.999956
0.999987
1.00005
0.999943
1
1.00004
1.00002
0.99997
1.00005
1.00013
1.00009
1.00021
1.00031
1.00042
1.00046
1.00059
1.00073
1.00074
1.0008
1.00086
1.0009
1.00092
1.00092
1.00094
1.00099
1.00092
1.00093
1.0009
0.998452
0.998197
0.998277
0.998373
0.998344
0.998271
0.998401
0.998419
0.998391
0.998516
0.998634
0.998656
0.998768
0.998998
0.999166
0.999209
0.999514
0.999695
0.999737
0.999808
0.999975
0.99999
0.999894
1.00003
1.00004
0.999959
0.999949
1.00009
0.999997
1
1.00014
1.0002
1.00024
1.00036
1.00062
1.00064
1.00075
1.00092
1.00099
1.00098
1.00105
1.00114
1.00111
1.00111
1.00121
1.00117
1.00112
1.0012
1.00131
1.00109
0.997967
0.997986
0.99813
0.998114
0.998099
0.998114
0.998194
0.99819
0.998231
0.998165
0.998224
0.998382
0.998386
0.998455
0.998686
0.998974
0.999023
0.999257
0.999596
0.999682
0.999723
0.999894
1.00002
0.999942
0.999904
1.00007
1.00005
0.999948
1.00007
1.00022
1.00025
1.00028
1.00058
1.00077
1.00074
1.00097
1.00114
1.00116
1.00113
1.00124
1.00129
1.00121
1.00124
1.00126
1.00131
1.00133
1.00134
1.00131
1.0014
1.00145
0.99772
0.997972
0.998055
0.997875
0.998132
0.998239
0.998095
0.998058
0.998237
0.998174
0.998054
0.99814
0.998198
0.998115
0.998233
0.998493
0.998634
0.998847
0.999139
0.999438
0.999537
0.999724
0.999929
0.999869
0.999998
0.999975
1.00009
1.00003
1.00019
1.00036
1.0004
1.00066
1.00086
1.00101
1.0011
1.00127
1.00135
1.00125
1.0013
1.00136
1.00128
1.00124
1.00139
1.0014
1.00127
1.00135
1.00156
1.00144
1.00144
1.00162
0.997856
0.997851
0.99802
0.997985
0.998196
0.998103
0.99822
0.998256
0.998242
0.998266
0.998282
0.998088
0.998105
0.998153
0.998057
0.997986
0.998325
0.998468
0.998649
0.998946
0.999381
0.999534
0.999547
0.999959
0.999961
0.999992
0.999972
1.00035
1.00035
1.00042
1.0008
1.00101
1.00112
1.00118
1.00147
1.00138
1.00127
1.00135
1.00139
1.00124
1.00129
1.00136
1.00134
1.00139
1.00149
1.00143
1.00153
1.00154
1.00166
1.00157
0.997908
0.99768
0.997996
0.998052
0.998035
0.997877
0.998191
0.998316
0.998115
0.998242
0.998409
0.998332
0.99817
0.998196
0.998082
0.997997
0.997911
0.998143
0.998233
0.998509
0.998858
0.999165
0.999453
0.999617
0.99992
0.999984
1.00027
1.00038
1.00062
1.00084
1.00109
1.0013
1.00133
1.00153
1.00143
1.00137
1.00133
1.00137
1.00129
1.00127
1.00143
1.00156
1.0014
1.0015
1.00172
1.00165
1.00157
1.00161
1.00187
1.00168
0.997867
0.997869
0.997984
0.997697
0.997836
0.997954
0.99788
0.997897
0.9981
0.998216
0.998144
0.998355
0.998437
0.99822
0.998242
0.998204
0.997952
0.997791
0.998107
0.998159
0.99829
0.998734
0.999242
0.999406
0.999661
1.00016
1.00039
1.00052
1.00088
1.0013
1.00134
1.00134
1.00163
1.00152
1.00132
1.00134
1.00143
1.00128
1.00137
1.0016
1.00153
1.00158
1.00177
1.00181
1.00165
1.00179
1.00192
1.00171
1.00174
1.0018
0.99806
0.998057
0.99802
0.997772
0.997905
0.998013
0.997802
0.997737
0.997973
0.998046
0.997933
0.998125
0.998435
0.998367
0.998312
0.998315
0.998204
0.998021
0.997808
0.99794
0.998081
0.99835
0.998672
0.999229
0.999611
1.0001
1.00046
1.00091
1.00122
1.00136
1.00151
1.00163
1.00148
1.00137
1.00136
1.0014
1.00138
1.00137
1.00163
1.00177
1.00168
1.00173
1.00186
1.00186
1.00169
1.00178
1.00186
1.00176
1.00169
1.0017
0.998354
0.997849
0.99807
0.998288
0.998043
0.997856
0.998012
0.998062
0.997643
0.997782
0.997984
0.997939
0.99787
0.99833
0.998389
0.998253
0.998353
0.998312
0.997885
0.997799
0.997963
0.998011
0.998278
0.998862
0.999683
0.999901
1.00063
1.0012
1.00142
1.00149
1.00164
1.00167
1.00134
1.00134
1.00152
1.00143
1.00147
1.00187
1.00181
1.00171
1.00189
1.00206
1.00167
1.00174
1.00194
1.00182
1.00157
1.00181
1.002
1.00159
0.998217
0.997967
0.998236
0.998196
0.998111
0.997996
0.998084
0.99813
0.997875
0.997815
0.997938
0.99781
0.997781
0.997956
0.99827
0.998306
0.998342
0.998277
0.998415
0.997976
0.997832
0.99795
0.998241
0.998738
0.999129
1.00023
1.00066
1.00113
1.00146
1.00163
1.0016
1.00126
1.00148
1.00149
1.00149
1.00156
1.00182
1.00192
1.0019
1.00184
1.0019
1.00189
1.00174
1.00183
1.00185
1.00185
1.00179
1.00175
1.00193
1.00183
0.997833
0.998198
0.998106
0.997603
0.997965
0.99826
0.997874
0.997894
0.9982
0.998122
0.997676
0.997856
0.998049
0.997713
0.997709
0.998291
0.998251
0.998309
0.998317
0.998429
0.997961
0.998024
0.998355
0.998484
0.999233
0.999959
1.00078
1.00098
1.00138
1.00161
1.00129
1.00146
1.00153
1.00159
1.00155
1.00201
1.00205
1.00171
1.00187
1.00209
1.00173
1.00166
1.00195
1.00202
1.00164
1.00191
1.0022
1.00183
1.00169
1.00211
0.997889
0.997742
0.997726
0.997707
0.997769
0.997897
0.997838
0.997964
0.997934
0.998172
0.99797
0.99794
0.997875
0.997837
0.997764
0.997802
0.998153
0.998246
0.998313
0.998331
0.998579
0.998287
0.998264
0.998848
0.999337
0.999789
1.0003
1.00107
1.00123
1.0011
1.00142
1.00155
1.0016
1.00165
1.00199
1.00199
1.00188
1.00195
1.00189
1.00183
1.00174
1.00197
1.00187
1.00196
1.00194
1.00201
1.00197
1.00209
1.00208
1.00192
0.997983
0.997459
0.997674
0.998158
0.997796
0.997581
0.997938
0.998137
0.997693
0.997896
0.998295
0.99808
0.997799
0.998003
0.998102
0.997614
0.997792
0.998291
0.998276
0.998429
0.998684
0.998883
0.998782
0.999012
0.999392
0.999683
1.00017
1.00057
1.00073
1.00102
1.00138
1.00157
1.00154
1.00196
1.00214
1.00173
1.00179
1.00204
1.00183
1.00161
1.00197
1.00216
1.00174
1.0019
1.00219
1.00203
1.00167
1.00208
1.00226
1.00185
0.997459
0.997721
0.99778
0.997555
0.997681
0.997837
0.99753
0.997626
0.997801
0.997785
0.997701
0.998041
0.998061
0.997887
0.997829
0.997978
0.99775
0.997759
0.998273
0.998548
0.998679
0.999063
0.999529
0.999362
0.999374
0.999774
0.999939
0.999937
1.00049
1.0011
1.00127
1.00149
1.00202
1.00205
1.00178
1.002
1.00201
1.00179
1.00181
1.00218
1.00203
1.00197
1.00216
1.00229
1.00193
1.00216
1.0023
1.00206
1.00199
1.00233
0.997281
0.997927
0.99771
0.997301
0.997675
0.99805
0.99745
0.997483
0.997925
0.997917
0.997486
0.99785
0.998283
0.997984
0.997863
0.998091
0.998081
0.997722
0.998075
0.99863
0.998989
0.999407
0.99977
0.999961
0.999691
0.999617
0.999468
0.999741
1.00025
1.00068
1.0011
1.00166
1.00203
1.00176
1.00176
1.00199
1.00191
1.00161
1.00199
1.00229
1.00188
1.00189
1.00224
1.00228
1.00177
1.00212
1.0024
1.00216
1.00187
1.00237
0.997907
0.997454
0.997462
0.998067
0.997706
0.997568
0.997955
0.99813
0.997637
0.997722
0.998091
0.997779
0.99766
0.998086
0.998152
0.997874
0.99789
0.998267
0.998039
0.998402
0.999265
0.999757
0.999955
1.00016
1.00023
0.999357
0.999313
0.999637
0.999881
1.00038
1.00125
1.00172
1.0015
1.00188
1.00207
1.00177
1.00176
1.00222
1.00213
1.00176
1.00212
1.0023
1.00176
1.00189
1.00229
1.00217
1.00169
1.00235
1.0024
1.00189
0.997918
0.997339
0.997633
0.998022
0.997645
0.997452
0.997753
0.99803
0.997518
0.997512
0.99786
0.997805
0.99747
0.997757
0.998149
0.997927
0.997948
0.998205
0.998443
0.998466
0.999208
0.999954
1.00032
1.00039
0.999949
0.99979
0.999367
0.99933
0.999664
1.00038
1.00117
1.00128
1.0016
1.00191
1.00193
1.00173
1.00209
1.00235
1.00207
1.00206
1.00237
1.00238
1.00196
1.00224
1.00239
1.0023
1.00195
1.00223
1.00246
1.0021
0.997181
0.998241
0.997806
0.99716
0.997541
0.998109
0.997239
0.997293
0.997956
0.99785
0.997334
0.997798
0.998233
0.99761
0.997748
0.998323
0.998328
0.998168
0.998578
0.999338
0.999326
0.999888
1.00058
1.00037
1.00008
0.999813
0.999521
0.999143
0.999666
1.00036
1.00034
1.00108
1.00167
1.00158
1.0015
1.00209
1.00231
1.00165
1.00205
1.00254
1.00205
1.00186
1.00255
1.00267
1.00182
1.00236
1.00278
1.00218
1.00165
1.00275
0.997699
0.997832
0.997455
0.997434
0.997513
0.99762
0.997507
0.997438
0.997634
0.997861
0.997761
0.997681
0.997806
0.997873
0.997655
0.997828
0.998232
0.998427
0.998795
0.999218
0.999827
0.999955
1.00015
1.00044
1.00019
0.999896
0.999489
0.999657
0.999784
0.999808
1.00046
1.001
1.00137
1.00157
1.00202
1.00228
1.00204
1.00214
1.0023
1.00217
1.00205
1.0023
1.00235
1.00233
1.00235
1.00244
1.0024
1.00258
1.00224
1.00221
0.998217
0.996811
0.997209
0.99848
0.997454
0.996865
0.997911
0.99827
0.997058
0.997294
0.99815
0.997674
0.997108
0.997818
0.998215
0.997574
0.998032
0.999
0.999146
0.999423
1.00003
1.0004
1.00001
1.00004
1.00028
0.999873
0.999942
0.999925
0.999441
0.999649
1.00031
1.00066
1.00076
1.0017
1.00231
1.00173
1.00206
1.00279
1.00236
1.00178
1.00258
1.00289
1.00175
1.00205
1.00299
1.00253
1.00156
1.00272
1.00317
1.00193
0.996934
0.99746
0.997457
0.997254
0.997208
0.997712
0.997346
0.997377
0.99755
0.997273
0.997364
0.997612
0.997638
0.997511
0.997713
0.998185
0.998129
0.998665
0.999557
1.00004
1.00021
1.00012
1.00017
0.999953
0.999887
1.00026
1.00022
0.999827
0.999772
0.999716
0.999807
1.00015
1.00108
1.00177
1.00167
1.00214
1.00245
1.00225
1.0022
1.00254
1.00262
1.00236
1.00262
1.00273
1.00219
1.00271
1.00284
1.00247
1.00241
1.00321
0.996611
0.998225
0.997778
0.996425
0.997531
0.998541
0.997062
0.996823
0.998038
0.998133
0.996934
0.997445
0.998238
0.997686
0.997418
0.998145
0.99868
0.998613
0.999458
1.00038
1.00022
1.00004
1.00002
0.99981
0.999848
1.00031
1.00042
1.00009
0.999982
0.999767
0.999477
1.00029
1.00126
1.00124
1.00167
1.00245
1.00235
1.00166
1.00235
1.00298
1.00192
1.00198
1.00309
1.00295
1.00164
1.00247
1.00344
1.00239
1.00188
1.00323
0.997733
0.996904
0.996792
0.997994
0.997214
0.996738
0.997551
0.997721
0.9969
0.997417
0.998061
0.997232
0.997191
0.997775
0.997824
0.997631
0.998299
0.999409
0.999622
1.00005
1.00062
1.00029
0.999807
0.999808
1.00007
1.00017
1.00034
1.00044
0.99992
0.999363
0.999794
1.00031
1.00046
1.00149
1.0023
1.00215
1.00207
1.00268
1.00278
1.00194
1.00254
1.00316
1.00231
1.00238
1.00337
1.0029
1.00188
1.0033
1.00326
1.0022
0.997864
0.996127
0.996891
0.998207
0.997148
0.996314
0.997594
0.998091
0.996767
0.997103
0.998025
0.997785
0.99691
0.997643
0.998207
0.997843
0.998462
0.999506
1.00009
1.00013
1.00038
1.00031
0.99983
0.99986
1.00008
1.00019
1.0004
1.00045
0.999905
0.999723
0.999945
0.99989
1.00036
1.00144
1.00212
1.00167
1.00217
1.00301
1.0023
1.00202
1.0029
1.00321
1.00207
1.00246
1.00353
1.00296
1.00207
1.00306
1.00381
1.00246
0.99605
0.998487
0.997819
0.996048
0.99728
0.9985
0.996724
0.996652
0.998291
0.997703
0.996534
0.997394
0.998397
0.997305
0.997406
0.998612
0.999083
0.999153
0.999943
1.00059
1.0001
0.999887
1.00016
0.999961
0.999901
1.00034
1.00042
1.00015
1.00029
1.00017
0.99958
1.00001
1.00089
1.00105
1.00121
1.00234
1.00273
1.00168
1.00248
1.00349
1.00248
1.00171
1.00341
1.00351
1.00157
1.00282
1.00423
1.00239
1.0016
1.00419
0.997035
0.997929
0.997097
0.996302
0.997014
0.997896
0.996868
0.996586
0.997592
0.997505
0.996705
0.997138
0.997898
0.997809
0.997383
0.998275
0.999141
0.999378
0.999906
1.00032
1.00014
0.999927
1.00008
1.00015
1.00009
1.00017
1.00017
1.00023
1.00039
1.00013
0.999901
1.00027
1.00079
1.0009
1.00161
1.00256
1.00223
1.00207
1.00286
1.00331
1.00259
1.00255
1.00337
1.00314
1.00247
1.0032
1.00364
1.00334
1.00256
1.00292
0.998829
0.995249
0.996345
0.999147
0.997084
0.995628
0.997959
0.998715
0.996114
0.99685
0.998608
0.997527
0.996779
0.997891
0.998798
0.998133
0.998916
1.00027
1.00027
1.00008
1.00026
1.0002
0.999958
1.00023
1.00042
1.00001
1.00002
1.00032
1.00014
1.00006
1.00034
1.00022
0.999906
1.00107
1.00203
1.00135
1.00194
1.00321
1.00274
1.00147
1.00311
1.00412
1.00154
1.002
1.00464
1.00322
1.00108
1.00387
1.00507
1.00155
0.996404
0.996687
0.997214
0.997182
0.996726
0.996891
0.996963
0.997214
0.997169
0.996795
0.997205
0.997319
0.997139
0.997303
0.997885
0.998699
0.999095
0.999635
1.00013
1.00018
0.999985
0.999942
1.00015
1.00024
1.00014
1.0001
1.00011
1.00017
1.00036
1.00044
1.00036
1.00024
1.00061
1.0012
1.00147
1.00203
1.00269
1.00291
1.00267
1.00285
1.00332
1.00295
1.00306
1.00342
1.0032
1.0035
1.00351
1.0031
1.00335
1.00449
0.995002
0.999713
0.998054
0.994041
0.997234
0.999329
0.996029
0.995796
0.99849
0.998326
0.99602
0.99734
0.998701
0.997537
0.997616
0.999327
1.00001
0.999559
1.00023
1.0007
0.999967
0.99982
1.00035
1.00023
1.00001
1.00026
1.00012
0.999944
1.00052
1.00068
0.999983
1.00028
1.00103
1.00056
1.00076
1.00238
1.00274
1.00137
1.00255
1.0042
1.00211
1.00147
1.00432
1.0044
1.00102
1.00291
1.00623
1.00247
1.00099
1.00526
0.998197
0.995982
0.99552
0.998148
0.996665
0.995917
0.997098
0.997264
0.996627
0.996694
0.997852
0.997011
0.996833
0.997663
0.998255
0.99863
0.99926
1.00012
1.00034
1.00013
1.00006
1.00016
1.00018
1.00013
1.0001
1.00011
1.00002
1.00007
1.00031
1.00051
1.00063
1.00052
1.00054
1.00114
1.00174
1.002
1.00233
1.00314
1.00323
1.00235
1.00333
1.00373
1.00302
1.00295
1.00452
1.00402
1.00199
1.00514
1.00505
1.00205
0.999054
0.993263
0.996364
1.00005
0.996774
0.994379
0.997959
0.998827
0.995635
0.996564
0.998619
0.997619
0.996459
0.997994
0.999153
0.998649
0.999355
1.00056
1.00049
1.00002
1.00024
1.00035
1.00001
1.00002
1.00012
0.999958
1.0001
1.00033
1.00014
1.00039
1.00096
1.00061
1.00017
1.00118
1.00198
1.00114
1.00188
1.00368
1.00282
1.00141
1.00343
1.00485
1.00164
1.002
1.00592
1.004
1.00073
1.00422
1.00711
1.00219
0.99301
0.999087
0.997563
0.993773
0.996332
0.998945
0.995693
0.995167
0.997813
0.997435
0.996132
0.996804
0.998242
0.997514
0.997617
0.999265
1.00002
1.0001
1.00047
1.00061
1.00014
1.00007
1.00035
1.0001
0.999881
1.00017
1.00018
0.99996
1.00034
1.00068
1.00052
1.00064
1.00101
1.00091
1.00111
1.00254
1.0029
1.00201
1.0031
1.00417
1.00301
1.00212
1.00494
1.00491
1.00158
1.00387
1.00726
1.00305
1.00138
1.0087
0.995897
1.00026
0.997162
0.993223
0.997323
0.999154
0.99593
0.995878
0.998047
0.997767
0.99639
0.997481
0.998383
0.997677
0.998055
0.999475
1.00012
1.00015
1.00061
1.00057
0.999971
0.999999
1.00019
0.999614
0.999449
1.00009
1.00025
0.999994
1.0005
1.00094
1.00059
1.00072
1.0013
1.00098
1.00102
1.0024
1.00285
1.00174
1.00256
1.00413
1.00272
1.0018
1.00435
1.00486
1.00148
1.00305
1.00735
1.00383
1.00171
1.00492
1.00053
0.988921
0.993487
1.00109
0.99627
0.992839
0.997396
0.998684
0.995179
0.99539
0.99837
0.997328
0.996087
0.997765
0.998995
0.998766
0.999554
1.00117
1.00113
1.00036
1.00035
1.00048
1.00015
0.999986
0.999989
0.99989
1.00011
1.00034
1.0002
1.00044
1.001
1.0007
1.00029
1.00143
1.00218
1.00156
1.00224
1.00422
1.00333
1.00156
1.00434
1.00549
1.00183
1.00226
1.00764
1.00486
0.999355
1.0074
1.01166
0.998931
0.993859
0.99358
0.996375
0.998196
0.995608
0.996136
0.997453
0.997339
0.996407
0.997284
0.997682
0.997106
0.997456
0.998421
0.998696
0.999099
1.00026
1.00106
1.00079
1.00047
1.00032
0.999944
0.99955
0.999651
0.999644
0.999578
0.999938
1.00049
1.0005
1.00061
1.0011
1.00114
1.00061
1.00111
1.00211
1.00211
1.00201
1.00306
1.00339
1.00234
1.00279
1.00426
1.00325
1.00253
1.0044
1.00572
1.00235
1.00444
1.00795
1.00892
0.992412
1.00677
0.997092
0.990264
0.996808
1.00034
0.994777
0.994604
0.998561
0.997898
0.995342
0.99696
0.998528
0.997299
0.997519
0.999734
1.00045
1.00036
1.00115
1.00143
1.00051
1.00006
1.00002
0.999496
0.999338
1
1.00011
1.00003
1.00074
1.00097
1.00028
1.00077
1.00161
1.00083
1.00077
1.0032
1.0034
1.00145
1.00313
1.00562
1.00231
1.00084
1.00639
1.00614
0.998913
1.00415
1.0124
1.00135
0.995886
1.02294

VECTORS velocity double
1.13146e-007 -4.18145e-007 0
-1.23312e-007 -6.87226e-007 0
1.33079e-006 1.51267e-007 0
-3.48458e-007 -1.08148e-006 0
5.87714e-007 -1.19384e-006 0
3.13514e-006 4.36546e-007 0
3.32816e-006 -2.71961e-007 0
-4.5655e-007 -2.04049e-006 0
3.27998e-006 3.09373e-007 0
3.96524e-006 1.11563e-006 0
-4.41406e-007 -2.04016e-006 0
-7.56223e-007 -5.66523e-007 0
4.66497e-006 1.96958e-006 0
1.40142e-006 -1.10504e-006 0
2.62858e-007 -2.30753e-006 0
5.0393e-006 2.51854e-006 0
6.68006e-006 -5.24639e-007 0
2.99545e-006 -5.28067e-006 0
6.03659e-006 1.41999e-006 0
8.52953e-006 2.93276e-006 0
5.30475e-006 -8.30508e-006 0
3.54098e-006 -2.64841e-006 0
7.04989e-006 7.59691e-006 0
6.77353e-006 -3.85743e-006 0
3.02956e-006 -7.82439e-006 0
3.24129e-006 8.18104e-006 0
7.12483e-006 4.25196e-006 0
7.25482e-006 -7.21776e-006 0
3.78594e-006 2.85407e-006 0
5.93448e-006 8.44703e-006 0
9.19553e-006 -2.7824e-006 0
6.39684e-006 -1.4456e-006 0
3.30038e-006 5.18051e-006 0
7.27004e-006 5.05498e-007 0
5.5074e-006 -2.75866e-006 0
3.40109e-007 1.96656e-006 0
1.4142e-006 9.86059e-007 0
4.90825e-006 -2.20768e-006 0
-8.13182e-007 1.05244e-007 0
-8.99067e-007 1.81442e-006 0
3.5524e-006 -1.27913e-006 0
2.94302e-006 -6.85845e-007 0
-1.28047e-006 1.78653e-006 0
2.55112e-006 3.02414e-007 0
2.38356e-006 -6.62262e-007 0
1.91255e-007 1.17847e-006 0
-9.94787e-007 1.13903e-006 0
1.40814e-006 -1.38241e-007 0
-2.41006e-007 7.56325e-007 0
3.12398e-007 6.76621e-007 0
1.33511e-006 1.64076e-006 0
3.33716e-007 4.60178e-007 0
-4.38992e-007 -7.53694e-007 0
-6.75864e-007 -9.79051e-007 0
2.93771e-006 1.29283e-006 0
7.2304e-007 8.49515e-008 0
2.74468e-007 -1.25576e-006 0
3.92519e-006 1.56828e-006 0
5.10725e-006 -7.79552e-008 0
4.65254e-007 -2.74197e-006 0
4.13328e-006 3.08594e-007 0
6.01668e-006 1.54165e-007 0
3.11458e-006 -2.31767e-006 0
2.91539e-006 1.22747e-006 0
5.48722e-006 -2.46845e-007 0
5.08977e-006 4.71584e-007 0
6.96206e-006 3.27432e-006 0
4.92949e-006 -1.54535e-006 0
5.0848e-006 -1.77803e-006 0
1.22904e-005 5.90448e-006 0
1.15657e-005 -2.18264e-006 0
4.08481e-006 -4.99682e-006 0
1.23574e-005 4.15455e-006 0
1.88713e-005 1.43696e-007 0
7.83041e-006 -5.19846e-006 0
7.36668e-006 4.5712e-006 0
1.83666e-005 6.4844e-007 0
1.25865e-005 -3.69238e-006 0
3.98834e-006 4.16953e-006 0
1.07883e-005 2.07331e-006 0
1.18832e-005 -5.01526e-006 0
5.21911e-006 1.73984e-006 0
4.62543e-006 9.26199e-007 0
6.4657e-006 -2.95844e-006 0
5.08577e-006 -2.70878e-008 0
5.68419e-006 -1.04261e-007 0
2.74871e-006 -1.50564e-006 0
3.00411e-006 2.59781e-006 0
6.30178e-006 -2.05694e-007 0
4.43117e-006 -7.50735e-007 0
4.63866e-007 2.69788e-006 0
5.35663e-006 1.53252e-007 0
4.5436e-006 -1.8192e-006 0
6.15907e-007 1.13393e-006 0
1.42056e-006 1.01209e-007 0
3.5108e-006 -1.29093e-006 0
1.52148e-007 9.40184e-007 0
-2.74709e-007 7.63508e-007 0
8.67171e-007 9.29798e-008 0
9.64586e-007 -1.47385e-006 0
2.91703e-007 4.10104e-006 0
-6.61873e-007 6.71216e-007 0
-5.00119e-007 8.06277e-007 0
1.66713e-006 2.17448e-006 0
5.8878e-007 2.85552e-007 0
-2.03634e-006 -1.57724e-006 0
2.51479e-006 3.03943e-006 0
1.14383e-006 2.86225e-006 0
-3.4705e-006 -3.88753e-006 0
1.93123e-007 1.28633e-006 0
4.32612e-006 5.34354e-006 0
-1.30018e-006 -3.70622e-006 0
4.02221e-007 -4.51641e-006 0
7.12598e-006 9.05393e-006 0
3.34471e-006 1.8996e-006 0
-2.60661e-006 -1.13786e-005 0
3.80387e-006 4.67464e-006 0
5.33212e-006 1.55708e-005 0
-3.95019e-006 -1.15534e-005 0
-3.24116e-006 -8.7899e-006 0
3.93721e-006 2.09843e-005 0
6.69854e-009 3.76517e-006 0
-2.54815e-006 -2.14127e-005 0
1.58997e-006 1.00985e-005 0
1.38194e-006 1.8011e-005 0
1.21617e-006 -1.80631e-005 0
1.4647e-006 -1.06346e-005 0
-2.32657e-006 2.07859e-005 0
-2.15141e-008 -3.59843e-006 0
3.6075e-006 -2.07315e-005 0
-3.34762e-006 8.15921e-006 0
-3.92709e-006 1.1415e-005 0
4.9871e-006 -1.48787e-005 0
3.41076e-006 -4.82785e-006 0
-2.85293e-006 1.10525e-005 0
3.07522e-006 -1.18032e-006 0
6.94133e-006 -8.89681e-006 0
2.60629e-007 4.06943e-006 0
-1.59166e-006 4.25386e-006 0
4.33856e-006 -4.94605e-006 0
3.52122e-007 -1.65028e-006 0
-3.75944e-006 4.19745e-006 0
7.95043e-007 -2.25589e-006 0
2.47336e-006 -3.11021e-006 0