# vtk DataFile Version 4.0
SiwiRVisFile
ASCII
DATASET STRUCTURED_POINTS
DIMENSIONS 5 5 1
ORIGIN 0 0 0
SPACING 1 1 1
POINT_DATA 25

SCALARS flags double 1
LOOKUP_TABLE default
1
1
1
1
1
1
1
1
1
1
1
1
1
1
1
1
1
1
1
1
1
1
1
1
1

SCALARS density double 1
LOOKUP_TABLE default
0.983687
1.03775
0.999821
0.962362
1.01729
0.987355
1.03231
1.00036
0.968589
1.01146
1.02166
0.947256
0.999216
1.05222
0.977637
1.00188
0.984096
0.998231
1.01383
0.998713
0.972858
1.05922
0.998722
0.940177
1.03331

VECTORS velocity double
-0.00144463 0.00144492 0
-0.00275909 -0.00231815 0
0.00161479 -0.000482584 0
-0.00165915 0.00341448 0
-0.00165931 -0.00102422 0
5.00235e-006 0.00414875 0
-0.0088185 -4.79961e-005 0
-0.0155438 -0.000737426 0
-0.00927051 -0.00116233 0
0.000938141 -0.00345789 0
-0.00152792 0.00573196 0
-0.014742 0.019059 0
-0.0223398 -0.000176418 0
-0.0146759 -0.0191802 0
-0.00234647 -0.00324674 0
-0.00794321 0.0173343 0
-0.00951168 0.0221099 0
-0.00400366 -0.000948629 0
-0.0120832 -0.0200168 0
-0.00549404 -0.0182064 0
0.0221329 0.0126413 0
0.045353 0.00242689 0
0.0519626 0.000265352 0
0.0443843 -0.00392404 0
0.0285335 -0.0156161 0
