# vtk DataFile Version 4.0
SiwiRVisFile
ASCII
DATASET STRUCTURED_POINTS
DIMENSIONS 50 50 1
ORIGIN 0 0 0
SPACING 1 1 1
POINT_DATA 2500

SCALARS flags double 1
LOOKUP_TABLE default
1
1
1
1
1
1
1
1
1
1
1
1
1
1
1
1
1
1
1
1
1
1
1
1
1
1
1
1
1
1
1
1
1
1
1
1
1
1
1
1
1
1
1
1
1
1
1
1
1
1
1
1
1
1
1
1
1
1
1
1
1
1
1
1
1
1
1
1
1
1
1
1
1
1
1
1
1
1
1
1
1
1
1
1
1
1
1
1
1
1
1
1
1
1
1
1
1
1
1
1
1
1
1
1
1
1
1
1
1
1
1
1
1
1
1
1
1
1
1
1
1
1
1
1
1
1
1
1
1
1
1
1
1
1
1
1
1
1
1
1
1
1
1
1
1
1
1
1
1
1
1
1
1
1
1
1
1
1
1
1
1
1
1
1
1
1
1
1
1
1
1
1
1
1
1
1
1
1
1
1
1
1
1
1
1
1
1
1
1
1
1
1
1
1
1
1
1
1
1
1
1
1
1
1
1
1
1
1
1
1
1
1
1
1
1
1
1
1
1
1
1
1
1
1
1
1
1
1
1
1
1
1
1
1
1
1
1
1
1
1
1
1
1
1
1
1
1
1
1
1
1
1
1
1
1
1
1
1
1
1
1
1
1
1
1
1
1
1
1
1
1
1
1
1
1
1
1
1
1
1
1
1
1
1
1
1
1
1
1
1
1
1
1
1
1
1
1
1
1
1
1
1
1
1
1
1
1
1
1
1
1
1
1
1
1
1
1
1
1
1
1
1
1
1
1
1
1
1
1
1
1
1
1
1
1
1
1
1
1
1
1
1
1
1
1
1
1
1
1
1
1
1
1
1
1
1
1
1
1
1
1
1
1
1
1
1
1
1
1
1
1
1
1
1
1
1
1
1
1
1
1
1
1
1
1
1
1
1
1
1
1
1
1
1
1
1
1
1
1
1
1
1
1
1
1
1
1
1
1
1
1
1
1
1
1
1
1
1
1
1
1
1
1
1
1
1
1
1
1
1
1
1
1
1
1
1
1
1
1
1
1
1
1
1
1
1
1
1
1
1
1
1
1
1
1
1
1
1
1
1
1
1
1
1
1
1
1
1
1
1
1
1
1
1
1
1
1
1
1
1
1
1
1
1
1
1
1
1
1
1
1
1
1
1
1
1
1
1
1
1
1
1
1
1
1
1
1
1
1
1
1
1
1
1
1
1
1
1
1
1
1
1
1
1
1
1
1
1
1
1
1
1
1
1
1
1
1
1
1
1
1
1
1
1
1
1
1
1
1
1
1
1
1
1
1
1
1
1
1
1
1
1
1
1
1
1
1
1
1
1
1
1
1
1
1
1
1
1
1
1
1
1
1
1
1
1
1
1
1
1
1
1
1
1
1
1
1
1
1
1
1
1
1
1
1
1
1
1
1
1
1
1
1
1
1
1
1
1
1
1
1
1
1
1
1
1
1
1
1
1
1
1
1
1
1
1
1
1
1
1
1
1
1
1
1
1
1
1
1
1
1
1
1
1
1
1
1
1
1
1
1
1
1
1
1
1
1
1
1
1
1
1
1
1
1
1
1
1
1
1
1
1
1
1
1
1
1
1
1
1
1
1
1
1
1
1
1
1
1
1
1
1
1
1
1
1
1
1
1
1
1
1
1
1
1
1
1
1
1
1
1
1
1
1
1
1
1
1
1
1
1
1
1
1
1
1
1
1
1
1
1
1
1
1
1
1
1
1
1
1
1
1
1
1
1
1
1
1
1
1
1
1
1
1
1
1
1
1
1
1
1
1
1
1
1
1
1
1
1
1
1
1
1
1
1
1
1
1
1
1
1
1
1
1
1
1
1
1
1
1
1
1
1
1
1
1
1
1
1
1
1
1
1
1
1
1
1
1
1
1
1
1
1
1
1
1
1
1
1
1
1
1
1
1
1
1
1
1
1
1
1
1
1
1
1
1
1
1
1
1
1
1
1
1
1
1
1
1
1
1
1
1
1
1
1
1
1
1
1
1
1
1
1
1
1
1
1
1
1
1
1
1
1
1
1
1
1
1
1
1
1
1
1
1
1
1
1
1
1
1
1
1
1
1
1
1
1
1
1
1
1
1
1
1
1
1
1
1
1
1
1
1
1
1
1
1
1
1
1
1
1
1
1
1
1
1
1
1
1
1
1
1
1
1
1
1
1
1
1
1
1
1
1
1
1
1
1
1
1
1
1
1
1
1
1
1
1
1
1
1
1
1
1
1
1
1
1
1
1
1
1
1
1
1
1
1
1
1
1
1
1
1
1
1
1
1
1
1
1
1
1
1
1
1
1
1
1
1
1
1
1
1
1
1
1
1
1
1
1
1
1
1
1
1
1
1
1
1
1
1
1
1
1
1
1
1
1
1
1
1
1
1
1
1
1
1
1
1
1
1
1
1
1
1
1
1
1
1
1
1
1
1
1
1
1
1
1
1
1
1
1
1
1
1
1
1
1
1
1
1
1
1
1
1
1
1
1
1
1
1
1
1
1
1
1
1
1
1
1
1
1
1
1
1
1
1
1
1
1
1
1
1
1
1
1
1
1
1
1
1
1
1
1
1
1
1
1
1
1
1
1
1
1
1
1
1
1
1
1
1
1
1
1
1
1
1
1
1
1
1
1
1
1
1
1
1
1
1
1
1
1
1
1
1
1
1
1
1
1
1
1
1
1
1
1
1
1
1
1
1
1
1
1
1
1
1
1
1
1
1
1
1
1
1
1
1
1
1
1
1
1
1
1
1
1
1
1
1
1
1
1
1
1
1
1
1
1
1
1
1
1
1
1
1
1
1
1
1
1
1
1
1
1
1
1
1
1
1
1
1
1
1
1
1
1
1
1
1
1
1
1
1
1
1
1
1
1
1
1
1
1
1
1
1
1
1
1
1
1
1
1
1
1
1
1
1
1
1
1
1
1
1
1
1
1
1
1
1
1
1
1
1
1
1
1
1
1
1
1
1
1
1
1
1
1
1
1
1
1
1
1
1
1
1
1
1
1
1
1
1
1
1
1
1
1
1
1
1
1
1
1
1
1
1
1
1
1
1
1
1
1
1
1
1
1
1
1
1
1
1
1
1
1
1
1
1
1
1
1
1
1
1
1
1
1
1
1
1
1
1
1
1
1
1
1
1
1
1
1
1
1
1
1
1
1
1
1
1
1
1
1
1
1
1
1
1
1
1
1
1
1
1
1
1
1
1
1
1
1
1
1
1
1
1
1
1
1
1
1
1
1
1
1
1
1
1
1
1
1
1
1
1
1
1
1
1
1
1
1
1
1
1
1
1
1
1
1
1
1
1
1
1
1
1
1
1
1
1
1
1
1
1
1
1
1
1
1
1
1
1
1
1
1
1
1
1
1
1
1
1
1
1
1
1
1
1
1
1
1
1
1
1
1
1
1
1
1
1
1
1
1
1
1
1
1
1
1
1
1
1
1
1
1
1
1
1
1
1
1
1
1
1
1
1
1
1
1
1
1
1
1
1
1
1
1
1
1
1
1
1
1
1
1
1
1
1
1
1
1
1
1
1
1
1
1
1
1
1
1
1
1
1
1
1
1
1
1
1
1
1
1
1
1
1
1
1
1
1
1
1
1
1
1
1
1
1
1
1
1
1
1
1
1
1
1
1
1
1
1
1
1
1
1
1
1
1
1
1
1
1
1
1
1
1
1
1
1
1
1
1
1
1
1
1
1
1
1
1
1
1
1
1
1
1
1
1
1
1
1
1
1
1
1
1
1
1
1
1
1
1
1
1
1
1
1
1
1
1
1
1
1
1
1
1
1
1
1
1
1
1
1
1
1
1
1
1
1
1
1
1
1
1
1
1
1
1
1
1
1
1
1
1
1
1
1
1
1
1
1
1
1
1
1
1
1
1
1
1
1
1
1
1
1
1
1
1
1
1
1
1
1
1
1
1
1
1
1
1
1
1
1
1
1
1
1
1
1
1
1
1
1
1
1
1
1
1
1
1
1
1
1
1
1
1
1
1
1
1
1
1
1
1
1
1
1
1
1
1
1
1
1
1
1
1
1
1
1
1
1
1
1
1
1
1
1
1
1
1
1
1
1
1
1
1
1
1
1
1
1
1
1
1
1
1
1
1
1
1
1
1
1
1
1
1
1
1
1
1
1
1
1
1
1
1
1
1
1
1
1
1
1
1
1
1
1
1
1
1
1
1
1
1
1
1
1
1
1
1
1
1
1
1
1
1
1
1
1
1
1
1
1
1
1
1
1
1
1
1
1
1
1
1
1
1
1
1
1
1
1
1
1
1
1
1
1
1
1
1
1
1
1
1
1
1
1
1
1
1
1
1
1
1
1
1
1
1
1
1
1
1
1
1
1
1
1
1
1
1
1
1
1
1
1
1
1
1
1
1
1
1
1
1
1
1
1
1
1
1
1
1
1
1
1
1
1
1
1
1
1
1
1
1
1
1
1
1
1
1
1
1
1
1
1
1
1
1
1
1
1
1
1
1
1
1
1
1
1
1
1
1
1
1
1
1
1
1
1
1
1
1
1
1
1
1
1
1
1
1
1
1
1
1
1
1
1
1
1
1
1
1
1
1
1
1
1
1
1
1
1
1
1
1
1
1
1
1
1
1
1
1
1
1
1
1
1
1
1
1
1
1
1
1
1
1
1
1
1
1
1
1
1
1
1
1
1
1
1
1
1
1
1
1
1
1
1
1
1
1
1
1
1
1
1
1
1
1
1
1
1
1
1
1
1
1
1
1
1
1
1
1
1
1
1
1
1
1
1
1
1
1
1
1
1
1
1
1
1
1
1
1
1
1
1
1
1
1
1
1
1
1
1
1
1
1
1
1
1
1
1
1
1
1
1
1
1
1
1
1
1
1
1
1
1
1
1
1
1
1
1
1
1
1
1
1
1
1
1
1
1
1
1
1
1
1
1
1
1
1
1
1
1
1
1
1
1
1
1
1
1
1
1
1
1
1
1
1
1
1
1
1
1
1
1
1
1
1
1
1
1
1
1
1
1
1
1
1
1
1
1
1
1
1
1
1
1
1
1
1
1
1
1
1
1
1
1
1
1
1
1
1
1
1
1
1
1
1
1
1
1
1
1
1
1
1
1
1
1
1
1
1
1
1
1
1
1
1
1
1
1
1
1
1
1
1
1
1
1
1
1
1
1
1
1
1
1
1
1
1
1
1
1
1
1
1
1
1
1
1
1
1
1
1
1
1
1
1
1
1
1
1
1
1
1
1
1
1
1
1
1
1
1
1
1
1
1
1
1
1
1
1
1
1
1
1
1
1
1
1
1
1
1
1
1
1
1
1
1
1
1
1
1
1
1
1
1
1
1
1
1
1
1
1
1
1
1
1
1
1
1
1
1
1
1
1
1
1
1
1
1
1
1
1
1
1
1
1
1
1
1
1
1
1
1
1
1
1
1
1
1
1
1
1
1
1
1
1
1
1
1
1
1
1
1
1
1
1
1
1
1
1
1
1
1
1
1
1
1
1
1
1
1
1
1
1
1
1
1
1
1
1
1
1
1
1
1
1
1
1
1
1
1
1
1
1
1
1
1
1
1
1
1
1
1
1
1
1
1
1
1
1
1
1
1
1
1
1
1
1
1
1
1
1
1
1
1
1
1
1
1
1
1
1
1
1
1
1
1
1
1
1
1
1
1
1
1
1
1
1
1
1

SCALARS density double 1
LOOKUP_TABLE default
1
0.999984
0.999993
1.00001
0.999992
0.999982
1.00002
1.00001
0.999973
1
1.00003
0.999979
0.999979
1.00004
1
0.999955
1.00003
1.00004
0.999948
0.999977
1.00007
0.999995
0.99993
1.00003
1.00006
0.999944
0.999969
1.00007
1
0.999933
1.00002
1.00005
0.999957
0.999975
1.00005
0.999999
0.999963
1.00002
1.00002
0.999972
0.999993
1.00003
0.999992
0.999979
1.00002
1.00001
0.999986
1.00001
1.00002
0.999998
0.999983
0.99999
1.00001
0.99999
0.999981
1.00001
1.00001
0.999978
1
1.00002
0.999992
0.999993
1
1.00001
1
0.999986
0.999994
1.00002
0.999994
0.999974
1.00002
1.00002
0.99997
1
1.00002
0.999977
0.99999
1.00003
0.999988
0.999981
1.00002
1.00001
0.999983
1
1.00001
1
0.999996
0.999994
1.00001
1.00001
0.999985
0.999995
1.00002
0.999997
0.999985
1.00002
1.00001
0.99999
1.00001
1.00002
0.999989
1.00001
0.999987
0.99998
1.00001
1
0.999978
0.999999
1.00002
0.999987
0.999975
1.00003
1.00002
0.999956
1
1.00005
0.999974
0.999959
1.00004
1.00002
0.999947
1
1.00005
0.999976
0.999964
1.00004
1.00002
0.999955
0.999998
1.00005
0.999983
0.999956
1.00004
1.00002
0.999948
0.999997
1.00004
0.999982
0.999973
1.00002
1.00001
0.999981
0.999998
1.00002
0.999998
0.999991
1.00002
1.00001
0.99999
1.00001
1.00001
0.999984
0.999978
1
0.999991
0.999981
1
0.999993
0.999995
1.00001
0.999989
0.999992
1.00002
0.999998
0.999985
1.00001
1.00001
0.999994
1
1
1
1.00001
1
1
1
0.999996
1
1
0.999994
0.999998
0.999999
0.999996
1
0.999996
0.999997
1.00001
0.999999
0.999987
1.00001
1.00001
0.999991
1.00001
1
0.999996
1.00002
1.00001
0.999996
1.00002
1.00002
0.999993
0.99998
0.999961
0.999995
0.999992
0.999964
0.99998
1.00001
0.999987
0.999962
1.00001
1.00003
0.999966
0.999974
1.00004
1
0.999958
1.00002
1.00003
0.999969
0.999985
1.00003
0.999997
0.999964
1.00002
1.00003
0.999971
0.999983
1.00004
1
0.999965
1.00001
1.00003
0.999974
0.999983
1.00004
1
0.999959
1.00002
1.00003
0.999968
0.999995
1.00003
1.00001
0.999996
1.00002
1.00003
1.00001
1
1.00004
1.00002
0.999945
0.999984
0.999967
0.999954
0.999986
0.99996
0.999955
1
0.999983
0.99996
0.999996
1.00001
0.999991
0.999985
1
1.00001
1
0.99999
1
1.00001
0.999987
0.999991
1.00002
0.999995
0.999984
1.00002
1.00001
0.999984
1.00001
1.00001
0.999987
0.999996
1.00001
1
0.999989
0.999997
1.00002
1
0.999988
1.00001
1.00004
1.00001
1
1.00004
1.00004
1.00001
1.00004
1.00003
1.00001
1.00005
0.999949
0.999969
0.999923
0.999923
0.999961
0.999963
0.999918
0.999936
1.00001
0.999962
0.999937
1.00001
1
0.999964
1
1.00002
0.999986
0.999979
1.00003
1.00002
0.999963
0.999997
1.00005
0.999983
0.999959
1.00004
1.00002
0.999953
0.999999
1.00004
0.999983
0.999972
1.00002
1.00001
0.999975
0.999996
1.00003
0.999998
0.999986
1.00005
1.00003
0.999993
1.00006
1.00007
1.00003
1.00004
1.00007
1.00007
1.00003
1.00004
0.999913
0.999864
0.999906
0.999897
0.999853
0.999908
0.99993
0.999891
0.999896
0.999952
0.999966
0.999934
0.999969
1.00001
0.99998
0.999974
1.00001
1.00001
0.999969
0.999995
1.00003
0.999989
0.99998
1.00001
1.00002
0.999982
0.999987
1.00002
1.00001
0.999971
1
1.00003
0.999986
0.999987
1.00002
1.00002
0.999985
1.00002
1.00006
1.00002
1.00004
1.0001
1.00009
1.00005
1.00008
1.00013
1.00008
1.00007
1.00012
1.00007
0.99982
0.999754
0.999789
0.999827
0.999781
0.999758
0.999838
0.999843
0.999805
0.999876
0.999898
0.999888
0.999931
0.999971
0.999969
0.999946
1
1.00002
0.999966
0.999982
1.00003
0.999998
0.999965
1.00002
1.00003
0.999977
0.999978
1.00003
1
0.999968
1.00001
1.00003
0.999981
0.999988
1.00005
1.00002
1.00002
1.00006
1.00009
1.00009
1.0001
1.00016
1.00013
1.00013
1.0002
1.00017
1.00014
1.00017
1.0002
1.00015
0.999653
0.999678
0.999592
0.999596
0.999664
0.999643
0.999616
0.999683
0.999735
0.999706
0.999761
0.999847
0.999842
0.999866
0.999933
0.99998
0.999947
0.999959
1.00003
1.00001
0.999965
1
1.00003
0.999979
0.999966
1.00003
1.00002
0.999964
0.999994
1.00003
0.999991
0.999964
1.00003
1.00004
1.00001
1.00005
1.00011
1.00013
1.00012
1.0002
1.00025
1.00021
1.00025
1.00031
1.00028
1.00025
1.00033
1.00033
1.00024
1.00027
0.999387
0.999456
0.999388
0.999306
0.999372
0.999405
0.999376
0.999441
0.999485
0.999515
0.999575
0.999643
0.99972
0.99974
0.999818
0.999898
0.999907
0.999939
0.999978
0.999991
0.999971
0.99999
1.00001
0.99999
0.999997
0.999995
1.00001
0.999987
0.999997
1.00002
1.00001
1.00001
1.00004
1.00008
1.00008
1.00014
1.00021
1.00023
1.00029
1.00034
1.00038
1.0004
1.00043
1.00047
1.00045
1.00048
1.00053
1.00046
1.00042
1.00046
0.999143
0.998998
0.999006
0.999042
0.999004
0.998999
0.999082
0.99908
0.999116
0.999239
0.999285
0.99933
0.999426
0.999589
0.999648
0.999667
0.999836
0.999905
0.999879
0.999916
1.00003
1
0.999916
1.00003
1.00004
0.999953
0.99996
1.00007
0.999996
0.999956
1.00006
1.0001
1.00007
1.00012
1.00027
1.00028
1.00031
1.00045
1.00052
1.00055
1.00057
1.00066
1.00069
1.00066
1.00074
1.00073
1.00069
1.00072
1.00076
1.00063
0.998753
0.998593
0.998615
0.998686
0.998603
0.998613
0.998686
0.998708
0.998752
0.998805
0.998908
0.999006
0.99908
0.999219
0.999351
0.999509
0.999582
0.999733
0.999839
0.99987
0.999917
0.999971
1.00001
0.999971
0.999994
0.999999
1.00002
0.999978
1.00001
1.00006
1.00009
1.00012
1.00021
1.00033
1.00037
1.00051
1.0006
1.00069
1.00074
1.00079
1.00087
1.00089
1.00092
1.00093
1.00098
1.00098
1.00093
1.00097
1.001
1.0009
0.998236
0.998351
0.998325
0.998247
0.998303
0.998358
0.998328
0.998356
0.998457
0.998448
0.998458
0.998636
0.998741
0.998731
0.998976
0.999182
0.999271
0.999392
0.999665
0.999784
0.999752
0.999905
1.00001
0.999938
0.999928
1.00005
1.00004
0.999974
1.00005
1.0002
1.00016
1.00024
1.00047
1.00056
1.00062
1.00075
1.00095
1.00091
1.00096
1.00109
1.00109
1.00106
1.00113
1.00116
1.00114
1.00115
1.00124
1.00117
1.00113
1.00124
0.997957
0.998094
0.998063
0.998047
0.998205
0.998187
0.998189
0.99815
0.99823
0.998261
0.998243
0.998261
0.998342
0.998474
0.998495
0.99867
0.998929
0.9991
0.999262
0.999482
0.999701
0.99977
0.999814
0.999963
0.999992
0.99998
1.00001
1.00014
1.00018
1.0002
1.0004
1.00057
1.00067
1.00078
1.00098
1.0011
1.00106
1.00116
1.00121
1.0012
1.00119
1.00122
1.00129
1.00125
1.00128
1.00124
1.00137
1.00136
1.00135
1.00142
0.997871
0.997876
0.998018
0.998145
0.998166
0.99805
0.998278
0.99827
0.998159
0.998204
0.998277
0.998143
0.998141
0.998253
0.998245
0.998274
0.998471
0.998741
0.998838
0.999115
0.999439
0.999556
0.999691
0.99985
1.00003
0.999929
1.00008
1.00023
1.00033
1.00041
1.00065
1.00088
1.0009
1.00111
1.00123
1.00123
1.00121
1.00128
1.0013
1.00119
1.00127
1.00133
1.00125
1.00123
1.00144
1.00136
1.00135
1.00141
1.00157
1.00151
0.997796
0.997876
0.998091
0.998053
0.998146
0.998109
0.998285
0.998245
0.998289
0.998275
0.998292
0.998308
0.998228
0.998094
0.998159
0.998139
0.99814
0.998197
0.998543
0.998702
0.998897
0.999277
0.999528
0.999708
0.999766
1.00014
1.00019
1.00033
1.00051
1.00083
1.00095
1.00103
1.00132
1.00133
1.0013
1.00128
1.00136
1.00126
1.00121
1.00128
1.00132
1.00131
1.00138
1.00136
1.00147
1.00145
1.00153
1.00145
1.00161
1.00165
0.997845
0.998002
0.998045
0.997791
0.998048
0.998132
0.998078
0.998042
0.998316
0.998348
0.998213
0.998358
0.998397
0.99827
0.998144
0.998218
0.998021
0.998041
0.998133
0.998339
0.998504
0.998813
0.999253
0.99944
0.999764
1.00006
1.00037
1.00049
1.00086
1.00109
1.0012
1.00134
1.00139
1.00142
1.00126
1.00136
1.00129
1.00122
1.00131
1.00144
1.00137
1.00138
1.00161
1.00159
1.00153
1.00156
1.00179
1.0016
1.00159
1.00167
0.998077
0.997932
0.99795
0.9979
0.997958
0.997866
0.997973
0.997997
0.998015
0.998128
0.998247
0.998278
0.998345
0.998461
0.998382
0.998168
0.998257
0.998115
0.997913
0.998019
0.998298
0.99846
0.998716
0.999234
0.999751
0.999965
1.00042
1.00091
1.00108
1.0012
1.0014
1.00153
1.00135
1.00125
1.00141
1.00127
1.00123
1.00138
1.00147
1.00146
1.00158
1.00168
1.00164
1.00165
1.00178
1.00168
1.0017
1.0017
1.00175
1.0016
0.99819
0.997888
0.998027
0.998092
0.998016
0.997779
0.997994
0.998006
0.997808
0.997851
0.998157
0.998104
0.998096
0.998354
0.998462
0.99835
0.998304
0.998218
0.998092
0.997916
0.998
0.998207
0.998422
0.999015
0.999421
1.00012
1.00051
1.00103
1.00126
1.00141
1.00154
1.00139
1.00136
1.00134
1.00135
1.00131
1.00142
1.00163
1.00163
1.00157
1.00179
1.00183
1.00167
1.00167
1.00186
1.00171
1.00165
1.00169
1.00185
1.00164
0.998112
0.998217
0.998279
0.998002
0.998208
0.998167
0.998011
0.997941
0.998017
0.997948
0.997777
0.997953
0.998063
0.998062
0.99823
0.998522
0.998342
0.998314
0.998326
0.998209
0.997906
0.99804
0.998524
0.998661
0.999339
0.999996
1.00069
1.00085
1.00131
1.00155
1.00131
1.00129
1.00138
1.00143
1.00129
1.00153
1.00171
1.00165
1.00173
1.00191
1.00175
1.00168
1.00181
1.00179
1.00163
1.00164
1.00187
1.00161
1.00165
1.00178
0.998164
0.998256
0.998278
0.997959
0.99824
0.998234
0.998113
0.997974
0.998177
0.998073
0.997796
0.997869
0.998022
0.997886
0.997963
0.998189
0.998468
0.99837
0.99841
0.998336
0.998309
0.998237
0.998336
0.99883
0.999254
0.999917
1.00037
1.00095
1.00115
1.0012
1.00131
1.00133
1.00142
1.00135
1.00161
1.00178
1.00181
1.00172
1.00182
1.00189
1.00171
1.00167
1.00182
1.00177
1.00169
1.00169
1.00191
1.00169
1.0017
1.00177
0.998244
0.99778
0.997972
0.998031
0.997994
0.997782
0.99813
0.998168
0.997961
0.998042
0.99817
0.997976
0.997723
0.997938
0.997958
0.997855
0.99808
0.998498
0.99833
0.998496
0.998649
0.998594
0.99855
0.998949
0.999457
0.999614
1.00017
1.0007
1.00089
1.00095
1.00123
1.00147
1.00133
1.00168
1.0019
1.00177
1.00176
1.00199
1.00182
1.00163
1.00178
1.00191
1.00169
1.00172
1.00203
1.00185
1.00178
1.00188
1.00207
1.00168
0.997962
0.997719
0.997894
0.99784
0.997935
0.99781
0.997956
0.99811
0.99799
0.998059
0.998154
0.998197
0.997931
0.997965
0.997969
0.997854
0.997925
0.998137
0.998546
0.998606
0.998809
0.999051
0.999229
0.999183
0.999297
0.999726
0.999966
1.00011
1.00043
1.00088
1.00114
1.00124
1.00164
1.00182
1.00184
1.00178
1.00182
1.00183
1.00166
1.00174
1.00179
1.00183
1.00175
1.00185
1.00191
1.00183
1.00192
1.00185
1.002
1.00189
0.997604
0.997939
0.998015
0.997495
0.997972
0.998054
0.997725
0.99772
0.99809
0.998055
0.997815
0.998096
0.99831
0.997916
0.997832
0.998039
0.997954
0.997833
0.998306
0.998799
0.998975
0.999352
0.999689
0.999651
0.99946
0.99966
0.999618
0.999682
1.00019
1.00068
1.00095
1.0014
1.00186
1.00181
1.0017
1.00194
1.00192
1.00156
1.00175
1.00204
1.00179
1.00174
1.00206
1.00207
1.00175
1.00184
1.00224
1.0018
1.00182
1.00212
0.997768
0.997589
0.997893
0.997675
0.997898
0.997702
0.997785
0.997728
0.99773
0.997856
0.99786
0.997919
0.998039
0.998187
0.998052
0.997976
0.998015
0.998107
0.998153
0.998688
0.999324
0.999661
0.999867
1
0.999995
0.999349
0.999336
0.999635
0.999892
1.00027
1.00092
1.00153
1.00159
1.00171
1.00185
1.00177
1.00165
1.00184
1.00192
1.00191
1.00192
1.00207
1.002
1.00197
1.0021
1.00195
1.00205
1.00196
1.00217
1.00194
0.997892
0.997295
0.997714
0.997961
0.997786
0.997406
0.99797
0.998071
0.997562
0.997703
0.998089
0.997939
0.997707
0.998137
0.99833
0.997978
0.998084
0.998389
0.998481
0.998617
0.999406
0.999959
1.00007
1.00027
0.999949
0.999618
0.999269
0.999425
0.999593
1.0001
1.00094
1.00116
1.00132
1.00167
1.00185
1.00156
1.00171
1.0021
1.00189
1.00172
1.00205
1.00218
1.00172
1.00182
1.00228
1.00202
1.00181
1.00207
1.00238
1.00189
0.997598
0.997703
0.997948
0.997547
0.997864
0.997876
0.99786
0.997838
0.997985
0.99788
0.997726
0.997911
0.997926
0.997789
0.998015
0.998291
0.998227
0.998335
0.998668
0.999156
0.999277
0.999876
1.00043
1.00015
0.999989
0.99976
0.999592
0.999183
0.999585
1.00025
1.00039
1.00091
1.0014
1.00159
1.00151
1.00182
1.00208
1.00189
1.0019
1.00214
1.00199
1.00185
1.00205
1.00206
1.0019
1.00196
1.00226
1.0019
1.002
1.00221
0.997714
0.998063
0.998032
0.997335
0.997912
0.99806
0.997747
0.99755
0.998008
0.998029
0.997525
0.997776
0.998026
0.997873
0.997761
0.998278
0.998608
0.998518
0.99905
0.999456
0.99973
0.999841
1.00013
1.00026
0.999966
0.999957
0.999564
0.999526
0.999696
0.999783
1.00011
1.00057
1.00117
1.00119
1.00151
1.00203
1.00196
1.00181
1.00206
1.0023
1.00187
1.00192
1.0023
1.00219
1.0019
1.00203
1.00243
1.00195
1.00182
1.00211
0.998107
0.997317
0.997612
0.997894
0.997655
0.997259
0.997744
0.997792
0.99734
0.997678
0.998045
0.997764
0.997574
0.998026
0.998108
0.997904
0.998475
0.999144
0.999232
0.999577
0.999974
1.00006
0.999793
0.999986
1.00024
0.999817
0.999874
0.999981
0.99963
0.999566
0.999996
1.00047
1.00055
1.00124
1.00191
1.00173
1.00178
1.00226
1.00213
1.00179
1.00215
1.00251
1.00203
1.00207
1.0026
1.0023
1.00194
1.00232
1.00259
1.00185
0.997947
0.997239
0.997799
0.997873
0.997738
0.997312
0.997801
0.997916
0.997602
0.997636
0.998033
0.997968
0.99765
0.997947
0.998163
0.998199
0.998434
0.999209
0.999749
0.999811
1.00006
1.00003
0.999847
0.999761
0.999851
1.00017
1.00023
1.00003
0.999725
0.999624
0.999839
0.999908
1.00047
1.00131
1.00158
1.00167
1.00194
1.00224
1.00193
1.00191
1.00221
1.00223
1.00198
1.0021
1.00243
1.0022
1.0021
1.00214
1.00258
1.00215
0.997151
0.998086
0.997956
0.996929
0.997688
0.998198
0.997457
0.997319
0.997981
0.997901
0.99715
0.997681
0.998084
0.997618
0.9977
0.998478
0.998877
0.998986
0.999839
1.00045
1.00002
0.999848
0.999897
0.999688
0.999744
1.00028
1.0004
1.00005
1
0.999824
0.999296
0.999759
1.00069
1.0009
1.00125
1.00205
1.0023
1.00181
1.00214
1.00275
1.00207
1.00193
1.00259
1.00252
1.00174
1.00225
1.00294
1.0021
1.00185
1.00284
0.997541
0.997562
0.997499
0.997222
0.997666
0.997683
0.997567
0.997364
0.997532
0.997722
0.997421
0.997373
0.997801
0.998013
0.997949
0.998398
0.999068
0.999559
0.999812
1.00022
1.00028
0.999879
0.999675
0.999675
0.999937
1.00013
1.00036
1.00042
1.00015
0.999615
0.999557
0.999952
1.00019
1.00063
1.00137
1.00187
1.00179
1.00203
1.00243
1.00239
1.00219
1.00244
1.00253
1.00236
1.00234
1.00232
1.00253
1.00255
1.00247
1.00234
0.998041
0.996702
0.997273
0.998315
0.99764
0.996743
0.997921
0.998189
0.997097
0.997434
0.998196
0.997892
0.997275
0.998151
0.998606
0.99836
0.99905
0.999922
1.00011
0.999933
1.0002
1.00006
0.999571
0.999757
1.00002
1.00007
1.00029
1.00056
1.00009
0.999743
0.99994
0.999759
0.999827
1.00068
1.00151
1.00126
1.0016
1.00253
1.00207
1.00171
1.00244
1.00286
1.00184
1.00209
1.00314
1.00244
1.0017
1.00268
1.0032
1.00203
0.997093
0.997329
0.997618
0.997124
0.99737
0.997462
0.997219
0.997384
0.997694
0.997471
0.997354
0.997762
0.997774
0.997534
0.998124
0.99889
0.999183
0.999568
1.00006
1.00015
0.999733
0.999775
0.999958
0.999828
0.999932
1.00016
1.00034
1.00019
1.00027
1.00037
0.999884
0.999762
1.00022
1.0007
1.00091
1.0016
1.00229
1.00212
1.00215
1.00263
1.00253
1.00223
1.00261
1.00283
1.00239
1.00266
1.00299
1.0024
1.0025
1.00303
0.996648
0.998246
0.997794
0.996263
0.997495
0.998292
0.99706
0.996786
0.998193
0.998022
0.99685
0.997607
0.998402
0.99801
0.997921
0.999348
0.999972
0.999659
1.00007
1.00018
0.99982
0.999729
1.00009
1.00011
0.999924
1.00021
1.0001
1.00007
1.00044
1.00034
0.999883
0.999873
1.00028
0.999964
1.0004
1.0018
1.00193
1.00154
1.00228
1.00309
1.00206
1.00184
1.00308
1.00291
1.00183
1.00252
1.00359
1.0024
1.00184
1.0032
0.998049
0.99686
0.996971
0.997897
0.997293
0.996809
0.997656
0.997859
0.996856
0.997299
0.997897
0.997413
0.99748
0.998285
0.99889
0.998842
0.999643
1.00021
0.999843
0.999656
0.999731
0.999823
0.999805
1.00011
1.0003
0.999912
0.999984
1.00038
1.00042
1.00041
1.00046
1.00036
0.999818
1.00016
1.00106
1.00107
1.00152
1.00243
1.00263
1.00209
1.00265
1.00325
1.00215
1.0023
1.00334
1.00288
1.00205
1.00323
1.00336
1.00197
0.998053
0.996164
0.997206
0.998263
0.997386
0.996357
0.997807
0.998179
0.996746
0.996881
0.998082
0.997839
0.99716
0.998273
0.99924
0.99934
0.999451
1.00016
1.00007
0.999462
0.999659
0.999861
0.999908
1.00016
1.00019
1.00003
0.999999
1.00022
1.00032
1.00053
1.00083
1.00021
0.999867
1.00048
1.00071
1.00072
1.00159
1.00275
1.0022
1.00193
1.00302
1.00321
1.002
1.00236
1.00356
1.00282
1.00205
1.00288
1.0038
1.0024
0.99593
0.998382
0.997734
0.995965
0.997243
0.998404
0.99673
0.996669
0.998004
0.99783
0.996611
0.997767
0.99856
0.997993
0.998655
0.999965
1.0002
0.999596
0.999907
1.00002
0.999536
0.999831
1.00029
1.00011
0.999983
1.00015
1.00013
0.999942
1.00035
1.00081
1.00033
1.00026
1.00059
1.00005
1.00006
1.0013
1.00214
1.0015
1.0021
1.00342
1.00234
1.00196
1.00346
1.00354
1.00166
1.00286
1.00427
1.00247
1.00172
1.00434
0.997218
0.997994
0.997361
0.996487
0.997381
0.997884
0.996996
0.996606
0.997743
0.997814
0.997093
0.997262
0.998199
0.998436
0.998666
0.999762
1.00006
0.999875
0.999703
0.999696
0.999665
0.999683
0.999909
1.00001
1.00004
1.00013
1.00011
1.00023
1.00061
1.00065
1.00061
1.00066
1.00048
1.00012
1.00035
1.00143
1.00166
1.00179
1.00269
1.00294
1.0023
1.00244
1.00345
1.00313
1.00245
1.0029
1.00344
1.00311
1.00258
1.00287
0.998699
0.99536
0.996281
0.99924
0.997035
0.995309
0.997854
0.998355
0.996078
0.996939
0.998545
0.997776
0.997
0.998873
1.00003
0.999341
0.99982
1.00052
0.999968
0.999384
0.999864
1.00012
0.999767
0.999924
1.0002
0.999977
1.00018
1.00052
1.00027
1.00044
1.00098
1.00063
0.999904
1.00038
1.00107
1.00031
1.00106
1.003
1.0025
1.00146
1.00303
1.00418
1.00189
1.00216
1.00491
1.00337
1.00104
1.00399
1.00498
1.00177
0.996577
0.996416
0.997414
0.99711
0.996859
0.99712
0.996955
0.997337
0.997125
0.997044
0.997587
0.997777
0.998107
0.9985
0.999422
0.999886
0.999904
1
0.999795
0.999616
0.999729
0.999848
0.999794
0.999764
0.999876
1.00012
1.00036
1.00042
1.00044
1.00065
1.00086
1.00066
1.00047
1.00061
1.00057
1.00085
1.00171
1.00213
1.00231
1.00257
1.00313
1.00297
1.00283
1.00342
1.00301
1.0034
1.0036
1.00289
1.00358
1.0043
0.99482
0.99978
0.998067
0.994061
0.997379
0.999354
0.996197
0.995484
0.998347
0.998109
0.995969
0.99769
0.999251
0.998614
0.99864
1.00023
1.00058
0.999654
0.999849
1.00011
0.999724
0.99971
0.999962
0.999854
0.99986
1.0002
1.00031
1.00028
1.00064
1.00081
1.0004
1.00063
1.00106
1.00014
1.00008
1.00166
1.00197
1.00099
1.00225
1.00424
1.00227
1.00157
1.0046
1.00437
1.0011
1.00286
1.00623
1.00264
1.00092
1.00557
0.998532
0.995948
0.99592
0.998029
0.996703
0.996203
0.997141
0.997665
0.996342
0.99684
0.997785
0.99763
0.998026
0.998991
0.999766
0.999821
1.00011
1.00039
0.999936
0.999601
0.999791
0.999795
0.999522
0.999649
0.999972
1.00011
1.00037
1.00071
1.00068
1.00055
1.00077
1.00078
1.00041
1.00054
1.00087
1.0009
1.00136
1.00226
1.00271
1.00236
1.00314
1.00391
1.00272
1.00298
1.00427
1.00394
1.00209
1.00488
1.00511
1.00168
0.99877
0.993252
0.995977
0.999869
0.996813
0.994167
0.998283
0.998678
0.995835
0.996446
0.998605
0.998092
0.997314
0.999286
1.00031
0.999686
0.999991
1.00064
1.00008
0.999488
0.999852
0.999743
0.999303
0.999674
1.00006
0.999942
1.00036
1.00096
1.00065
1.00048
1.00101
1.00074
1.0001
1.00077
1.00135
1.00054
1.00114
1.00321
1.00251
1.0014
1.00355
1.00472
1.00185
1.00186
1.00612
1.00407
1.00088
1.0046
1.00712
1.00252
0.99352
0.999158
0.997857
0.993913
0.996499
0.99913
0.995742
0.995574
0.997915
0.997738
0.996147
0.997244
0.999129
0.998812
0.999224
1.00047
1.00067
0.999907
0.999826
1.00011
0.99973
0.999335
0.999487
0.999754
0.999934
1.0002
1.00042
1.0007
1.001
1.00082
1.00037
1.00059
1.00091
1.00049
1.00051
1.00164
1.00214
1.0014
1.00268
1.00404
1.00275
1.0021
1.00459
1.00493
1.00135
1.00381
1.00714
1.00276
1.0014
1.00834
0.995863
1.00028
0.997143
0.993194
0.997196
0.998919
0.99589
0.995788
0.998207
0.997788
0.996491
0.997864
0.999145
0.998951
0.999564
1.00088
1.00089
1.00011
1.00025
1.00024
0.999543
0.999184
0.999306
0.999455
0.999828
1.00035
1.00055
1.0007
1.00105
1.00092
1.0002
1.00031
1.00098
1.00046
1.0003
1.00166
1.00228
1.00144
1.00238
1.0041
1.00275
1.0018
1.00448
1.00495
1.00171
1.00315
1.00739
1.00392
1.00173
1.00516
1.00065
0.988885
0.993859
1.00134
0.996243
0.993014
0.997405
0.999057
0.99543
0.995819
0.998666
0.997909
0.997178
0.99914
1.00078
1.0002
1.00013
1.00069
1.00003
0.999281
0.999445
0.999413
0.998995
0.99945
1.00014
1.00035
1.0008
1.00132
1.00094
1.00068
1.00095
1.00054
1.00005
1.00104
1.00166
1.00082
1.0016
1.00358
1.0029
1.00136
1.00404
1.00534
1.00154
1.00229
1.00745
1.00488
0.999179
1.00723
1.01164
0.998877
0.993997
0.993721
0.996836
0.998089
0.995459
0.996201
0.99724
0.997312
0.996255
0.997374
0.997808
0.997638
0.998297
0.999737
1.00042
1.00064
1.00105
1.00102
1.00018
0.999746
0.999637
0.99909
0.998784
0.999438
1.00004
1.00028
1.00072
1.00127
1.00095
1.00035
1.00037
1.00037
1.00002
1.00063
1.00153
1.00148
1.00152
1.00275
1.00318
1.00241
1.00282
1.00443
1.00321
1.00269
1.00445
1.00579
1.00251
1.00423
1.00795
1.00891
0.992399
1.0072
0.997061
0.990176
0.996973
1.00045
0.994864
0.994611
0.998726
0.99798
0.995746
0.9976
0.999496
0.998699
0.999211
1.00129
1.00148
1.00054
1.00034
1.00004
0.998885
0.998436
0.998879
0.999172
0.999791
1.00085
1.00117
1.00117
1.00161
1.00113
0.999804
1.00002
1.00085
1.00024
1.00028
1.00269
1.00301
1.00104
1.00272
1.00533
1.00223
1.00076
1.00644
1.00608
0.998896
1.00419
1.01235
1.00144
0.995754
1.02325

VECTORS velocity double
-1.84054e-006 -7.06311e-007 0
2.18005e-007 2.12017e-006 0
2.14313e-006 2.60558e-006 0
-3.95002e-006 4.83509e-008 0
-1.33415e-006 -1.09502e-007 0
2.85097e-006 1.72935e-006 0
-1.82917e-006 7.28307e-007 0
-3.4099e-006 -9.28754e-007 0
2.28337e-006 -6.13299e-007 0
-2.39987e-006 1.23504e-006 0
-6.30726e-006 -4.78963e-007 0
-9.35949e-007 1.64039e-007 0
-1.50043e-006 1.37529e-006 0
-7.77029e-006 -7.65059e-007 0
-1.12333e-006 -7.27782e-007 0
3.7187e-006 3.90188e-006 0
-5.41002e-006 -1.54902e-006 0
-4.14798e-006 -3.15741e-006 0
5.09977e-006 2.23234e-006 0
-3.63192e-006 1.50283e-006 0
-9.21682e-006 -3.00128e-006 0
2.4684e-007 4.24146e-007 0
-4.95093e-006 5.95628e-007 0
-1.36917e-005 -7.15947e-008 0
-3.68232e-006 -3.88343e-007 0
-3.28592e-006 4.42603e-007 0
-1.33942e-005 5.88434e-008 0
-5.26324e-006 -2.58831e-007 0
3.67561e-007 -4.36012e-007 0
-8.59269e-006 2.34425e-006 0
-3.7255e-006 -1.50622e-006 0
4.59778e-006 -1.92274e-006 0
-4.08421e-006 2.4349e-006 0
-5.42435e-006 8.56646e-007 0
3.02631e-006 -3.69057e-006 0
-1.85723e-006 5.5159e-007 0
-8.30766e-006 1.44057e-007 0
-2.24241e-006 -1.4514e-006 0
-1.80052e-006 -1.32946e-007 0
-7.41425e-006 2.31919e-007 0
-3.51766e-006 -1.25139e-006 0
1.50262e-006 6.13449e-007 0
-4.43189e-006 7.32877e-007 0
-3.15141e-006 -5.64466e-007 0
1.91786e-006 -1.74686e-006 0
-1.75155e-006 3.04873e-007 0
-4.98552e-006 1.5703e-007 0
1.78079e-006 -2.07328e-006 0
6.10911e-009 -2.0078e-006 0
-1.83405e-006 1.19761e-006 0
-4.10774e-007 3.53561e-006 0
-2.93458e-006 2.56211e-006 0
-3.19936e-006 1.03886e-006 0
-9.6984e-007 2.11151e-006 0
1.21253e-006 2.84421e-007 0
-6.1936e-006 4.6821e-007 0
-2.2544e-006 3.55766e-006 0
1.50176e-006 -1.99593e-006 0
-3.41873e-006 -3.46148e-006 0
-3.50038e-006 6.72784e-006 0
-1.42272e-007 -4.02088e-006 0
-4.30583e-006 -7.93323e-006 0
-2.29381e-006 9.45826e-006 0
-1.8656e-006 3.22442e-006 0
-7.16648e-006 -1.39856e-005 0
-4.16167e-006 6.19743e-006 0
2.00692e-006 1.18557e-005 0
-5.61312e-006 -1.10867e-005 0
-7.49308e-006 -6.3222e-006 0
1.3055e-006 1.19925e-005 0
3.80083e-007 -3.37626e-006 0
-6.17397e-006 -8.3182e-006 0
-1.88054e-006 4.1989e-006 0
1.46022e-006 1.36489e-006 0
-3.14692e-006 -4.26131e-006 0
-3.54439e-006 4.55265e-006 0
8.34756e-007 -1.5231e-006 0
-2.00793e-006 -3.70479e-006 0
-6.32069e-006 8.41933e-006 0
-5.84634e-007 2.81008e-006 0
4.82214e-007 -1.1328e-005 0
-7.17002e-006 6.74527e-006 0
-5.30445e-006 1.00803e-005 0
1.5813e-006 -1.16998e-005 0
-3.78471e-006 -5.2926e-006 0
-5.87564e-006 1.33027e-005 0
-1.10011e-006 -3.7076e-006 0
-1.8545e-006 -8.95632e-006 0
-3.14733e-006 7.94129e-006 0
1.05396e-006 3.69616e-006 0
-2.84802e-006 -6.64573e-006 0
-2.82299e-006 3.76162e-006 0
2.78814e-006 1.97293e-006 0
-1.37282e-006 -3.74321e-006 0
-5.61528e-006 -5.23023e-007 0
1.98532e-006 3.67358e-008 0
4.03835e-007 -2.6505e-006 0
-2.96328e-006 -7.62143e-007 0
-2.22039e-006 -2.70922e-006 0
-3.89196e-007 -3.30757e-006 0
2.8269e-006 7.18684e-006 0
-1.59881e-006 1.67967e-006 0
7.93691e-007 3.6406e-006 0
2.71107e-006 5.54945e-006 0
-2.15321e-006 -4.28137e-007 0
-9.19413e-007 2.09902e-006 0
5.88215e-006 4.1491e-006 0
-6.22347e-007 3.91025e-007 0
-2.96549e-006 -3.42097e-006 0
3.93054e-006 3.09083e-006 0
6.50242e-006 4.20039e-006 0
-2.86711e-006 -6.42623e-006 0
1.51398e-006 -4.42534e-006 0
1.297e-005 1.20382e-005 0
5.37317e-006 -2.05101e-006 0
-3.86663e-006 -1.13819e-005 0
8.97629e-006 9.26871e-006 0
9.58707e-006 5.79029e-006 0
-1.52242e-006 -1.03052e-005 0
2.23428e-006 3.97164e-006 0
9.31611e-006 5.25611e-006 0
3.52501e-006 -5.20684e-006 0
3.11705e-006 1.43264e-006 0
7.20574e-006 2.0445e-006 0
5.68653e-006 -3.32372e-006 0
5.79461e-006 3.22676e-006 0
7.16553e-006 -1.84739e-006 0
3.0311e-006 -1.57598e-006 0
3.7109e-006 5.11906e-006 0
9.17525e-006 -4.45791e-006 0
2.00735e-006 -3.66394e-006 0
-1.34406e-006 9.66576e-006 0
9.28252e-006 -4.69515e-006 0
8.34397e-006 -7.99899e-006 0
-3.73566e-006 1.0501e-005 0
5.35447e-006 2.08182e-006 0
1.233e-005 -1.03668e-005 0
1.30336e-006 4.08483e-006 0
-2.6478e-006 5.74777e-006 0
6.13975e-006 -3.168e-006 0