# vtk DataFile Version 4.0
SiwiRVisFile
ASCII
DATASET STRUCTURED_POINTS
DIMENSIONS 5 5 1
ORIGIN 0 0 0
SPACING 1 1 1
POINT_DATA 25

SCALARS flags double 1
LOOKUP_TABLE default
1
1
1
1
1
1
1
1
1
1
1
1
1
1
1
1
1
1
1
1
1
1
1
1
1

SCALARS density double 1
LOOKUP_TABLE default
0.989241
1.01294
0.999688
0.98741
1.01101
0.994577
1.00087
1.00019
1.00045
1.00357
1.00339
0.964151
0.99802
1.03614
0.995861
0.981488
0.98485
0.999439
1.01692
1.01778
0.978401
1.0099
0.99747
0.990076
1.02616

VECTORS velocity double
-0.00116811 0.00850015 0
-0.00588934 -0.00155297 0
-0.00555856 0.0001821 0
-0.00584732 0.00171797 0
-0.000796887 -0.008585 0
0.00196559 0.00898987 0
0.00146671 0.00133748 0
0.00613801 0.000307806 0
0.00105232 -0.00250108 0
0.0014991 -0.00810911 0
0.00156944 0.00179162 0
-0.00946401 0.015016 0
-0.0122858 0.000419882 0
-0.0106501 -0.0153664 0
0.000488271 -0.000652926 0
-0.0156712 0.00832443 0
-0.0184776 0.0162776 0
-0.0172697 0.000452311 0
-0.0184844 -0.0160504 0
-0.0152933 -0.0084501 0
0.0299398 0.0042504 0
0.0415931 -0.00120841 0
0.0413892 0.000288538 0
0.04409 0.000805506 0
0.0311102 -0.0050276 0
