# vtk DataFile Version 4.0
SiwiRVisFile
ASCII
DATASET STRUCTURED_POINTS
DIMENSIONS 5 5 1
ORIGIN 0 0 0
SPACING 1 1 1
POINT_DATA 25

SCALARS flags double 1
LOOKUP_TABLE default
1
1
1
1
1
1
1
1
1
1
1
1
1
1
1
1
1
1
1
1
1
1
1
1
1

SCALARS density double 1
LOOKUP_TABLE default
0.984986
1.03851
0.999973
0.961271
1.01594
0.988146
1.03284
1.00034
0.968019
1.01071
1.02267
0.947802
0.999036
1.0517
0.97657
1.00311
0.984868
0.997933
1.01295
0.997607
0.974889
1.0608
0.998819
0.938698
1.03181

VECTORS velocity double
-0.00137372 0.00181665 0
-0.00258943 -0.00215921 0
0.00188022 -0.000505406 0
-0.00131555 0.00322098 0
-0.00136861 -0.00151442 0
0.00021461 0.00449932 0
-0.00823511 -0.000162916 0
-0.0147343 -0.000803202 0
-0.00855725 -0.00139132 0
0.00123676 -0.00386762 0
-0.0012006 0.00583457 0
-0.0144598 0.0193324 0
-0.0225421 -7.98663e-005 0
-0.014517 -0.0197566 0
-0.00203396 -0.00343121 0
-0.00766899 0.0173489 0
-0.00868215 0.0224526 0
-0.00306756 -0.000920948 0
-0.0113765 -0.0205921 0
-0.00527672 -0.0182654 0
0.0222948 0.0124843 0
0.0458726 0.00252366 0
0.052528 0.000201263 0
0.0448006 -0.00406334 0
0.0287192 -0.0156064 0
