# vtk DataFile Version 4.0
SiwiRVisFile
ASCII
DATASET STRUCTURED_POINTS
DIMENSIONS 50 50 1
ORIGIN 0 0 0
SPACING 1 1 1
POINT_DATA 2500

SCALARS flags double 1
LOOKUP_TABLE default
1
1
1
1
1
1
1
1
1
1
1
1
1
1
1
1
1
1
1
1
1
1
1
1
1
1
1
1
1
1
1
1
1
1
1
1
1
1
1
1
1
1
1
1
1
1
1
1
1
1
1
1
1
1
1
1
1
1
1
1
1
1
1
1
1
1
1
1
1
1
1
1
1
1
1
1
1
1
1
1
1
1
1
1
1
1
1
1
1
1
1
1
1
1
1
1
1
1
1
1
1
1
1
1
1
1
1
1
1
1
1
1
1
1
1
1
1
1
1
1
1
1
1
1
1
1
1
1
1
1
1
1
1
1
1
1
1
1
1
1
1
1
1
1
1
1
1
1
1
1
1
1
1
1
1
1
1
1
1
1
1
1
1
1
1
1
1
1
1
1
1
1
1
1
1
1
1
1
1
1
1
1
1
1
1
1
1
1
1
1
1
1
1
1
1
1
1
1
1
1
1
1
1
1
1
1
1
1
1
1
1
1
1
1
1
1
1
1
1
1
1
1
1
1
1
1
1
1
1
1
1
1
1
1
1
1
1
1
1
1
1
1
1
1
1
1
1
1
1
1
1
1
1
1
1
1
1
1
1
1
1
1
1
1
1
1
1
1
1
1
1
1
1
1
1
1
1
1
1
1
1
1
1
1
1
1
1
1
1
1
1
1
1
1
1
1
1
1
1
1
1
1
1
1
1
1
1
1
1
1
1
1
1
1
1
1
1
1
1
1
1
1
1
1
1
1
1
1
1
1
1
1
1
1
1
1
1
1
1
1
1
1
1
1
1
1
1
1
1
1
1
1
1
1
1
1
1
1
1
1
1
1
1
1
1
1
1
1
1
1
1
1
1
1
1
1
1
1
1
1
1
1
1
1
1
1
1
1
1
1
1
1
1
1
1
1
1
1
1
1
1
1
1
1
1
1
1
1
1
1
1
1
1
1
1
1
1
1
1
1
1
1
1
1
1
1
1
1
1
1
1
1
1
1
1
1
1
1
1
1
1
1
1
1
1
1
1
1
1
1
1
1
1
1
1
1
1
1
1
1
1
1
1
1
1
1
1
1
1
1
1
1
1
1
1
1
1
1
1
1
1
1
1
1
1
1
1
1
1
1
1
1
1
1
1
1
1
1
1
1
1
1
1
1
1
1
1
1
1
1
1
1
1
1
1
1
1
1
1
1
1
1
1
1
1
1
1
1
1
1
1
1
1
1
1
1
1
1
1
1
1
1
1
1
1
1
1
1
1
1
1
1
1
1
1
1
1
1
1
1
1
1
1
1
1
1
1
1
1
1
1
1
1
1
1
1
1
1
1
1
1
1
1
1
1
1
1
1
1
1
1
1
1
1
1
1
1
1
1
1
1
1
1
1
1
1
1
1
1
1
1
1
1
1
1
1
1
1
1
1
1
1
1
1
1
1
1
1
1
1
1
1
1
1
1
1
1
1
1
1
1
1
1
1
1
1
1
1
1
1
1
1
1
1
1
1
1
1
1
1
1
1
1
1
1
1
1
1
1
1
1
1
1
1
1
1
1
1
1
1
1
1
1
1
1
1
1
1
1
1
1
1
1
1
1
1
1
1
1
1
1
1
1
1
1
1
1
1
1
1
1
1
1
1
1
1
1
1
1
1
1
1
1
1
1
1
1
1
1
1
1
1
1
1
1
1
1
1
1
1
1
1
1
1
1
1
1
1
1
1
1
1
1
1
1
1
1
1
1
1
1
1
1
1
1
1
1
1
1
1
1
1
1
1
1
1
1
1
1
1
1
1
1
1
1
1
1
1
1
1
1
1
1
1
1
1
1
1
1
1
1
1
1
1
1
1
1
1
1
1
1
1
1
1
1
1
1
1
1
1
1
1
1
1
1
1
1
1
1
1
1
1
1
1
1
1
1
1
1
1
1
1
1
1
1
1
1
1
1
1
1
1
1
1
1
1
1
1
1
1
1
1
1
1
1
1
1
1
1
1
1
1
1
1
1
1
1
1
1
1
1
1
1
1
1
1
1
1
1
1
1
1
1
1
1
1
1
1
1
1
1
1
1
1
1
1
1
1
1
1
1
1
1
1
1
1
1
1
1
1
1
1
1
1
1
1
1
1
1
1
1
1
1
1
1
1
1
1
1
1
1
1
1
1
1
1
1
1
1
1
1
1
1
1
1
1
1
1
1
1
1
1
1
1
1
1
1
1
1
1
1
1
1
1
1
1
1
1
1
1
1
1
1
1
1
1
1
1
1
1
1
1
1
1
1
1
1
1
1
1
1
1
1
1
1
1
1
1
1
1
1
1
1
1
1
1
1
1
1
1
1
1
1
1
1
1
1
1
1
1
1
1
1
1
1
1
1
1
1
1
1
1
1
1
1
1
1
1
1
1
1
1
1
1
1
1
1
1
1
1
1
1
1
1
1
1
1
1
1
1
1
1
1
1
1
1
1
1
1
1
1
1
1
1
1
1
1
1
1
1
1
1
1
1
1
1
1
1
1
1
1
1
1
1
1
1
1
1
1
1
1
1
1
1
1
1
1
1
1
1
1
1
1
1
1
1
1
1
1
1
1
1
1
1
1
1
1
1
1
1
1
1
1
1
1
1
1
1
1
1
1
1
1
1
1
1
1
1
1
1
1
1
1
1
1
1
1
1
1
1
1
1
1
1
1
1
1
1
1
1
1
1
1
1
1
1
1
1
1
1
1
1
1
1
1
1
1
1
1
1
1
1
1
1
1
1
1
1
1
1
1
1
1
1
1
1
1
1
1
1
1
1
1
1
1
1
1
1
1
1
1
1
1
1
1
1
1
1
1
1
1
1
1
1
1
1
1
1
1
1
1
1
1
1
1
1
1
1
1
1
1
1
1
1
1
1
1
1
1
1
1
1
1
1
1
1
1
1
1
1
1
1
1
1
1
1
1
1
1
1
1
1
1
1
1
1
1
1
1
1
1
1
1
1
1
1
1
1
1
1
1
1
1
1
1
1
1
1
1
1
1
1
1
1
1
1
1
1
1
1
1
1
1
1
1
1
1
1
1
1
1
1
1
1
1
1
1
1
1
1
1
1
1
1
1
1
1
1
1
1
1
1
1
1
1
1
1
1
1
1
1
1
1
1
1
1
1
1
1
1
1
1
1
1
1
1
1
1
1
1
1
1
1
1
1
1
1
1
1
1
1
1
1
1
1
1
1
1
1
1
1
1
1
1
1
1
1
1
1
1
1
1
1
1
1
1
1
1
1
1
1
1
1
1
1
1
1
1
1
1
1
1
1
1
1
1
1
1
1
1
1
1
1
1
1
1
1
1
1
1
1
1
1
1
1
1
1
1
1
1
1
1
1
1
1
1
1
1
1
1
1
1
1
1
1
1
1
1
1
1
1
1
1
1
1
1
1
1
1
1
1
1
1
1
1
1
1
1
1
1
1
1
1
1
1
1
1
1
1
1
1
1
1
1
1
1
1
1
1
1
1
1
1
1
1
1
1
1
1
1
1
1
1
1
1
1
1
1
1
1
1
1
1
1
1
1
1
1
1
1
1
1
1
1
1
1
1
1
1
1
1
1
1
1
1
1
1
1
1
1
1
1
1
1
1
1
1
1
1
1
1
1
1
1
1
1
1
1
1
1
1
1
1
1
1
1
1
1
1
1
1
1
1
1
1
1
1
1
1
1
1
1
1
1
1
1
1
1
1
1
1
1
1
1
1
1
1
1
1
1
1
1
1
1
1
1
1
1
1
1
1
1
1
1
1
1
1
1
1
1
1
1
1
1
1
1
1
1
1
1
1
1
1
1
1
1
1
1
1
1
1
1
1
1
1
1
1
1
1
1
1
1
1
1
1
1
1
1
1
1
1
1
1
1
1
1
1
1
1
1
1
1
1
1
1
1
1
1
1
1
1
1
1
1
1
1
1
1
1
1
1
1
1
1
1
1
1
1
1
1
1
1
1
1
1
1
1
1
1
1
1
1
1
1
1
1
1
1
1
1
1
1
1
1
1
1
1
1
1
1
1
1
1
1
1
1
1
1
1
1
1
1
1
1
1
1
1
1
1
1
1
1
1
1
1
1
1
1
1
1
1
1
1
1
1
1
1
1
1
1
1
1
1
1
1
1
1
1
1
1
1
1
1
1
1
1
1
1
1
1
1
1
1
1
1
1
1
1
1
1
1
1
1
1
1
1
1
1
1
1
1
1
1
1
1
1
1
1
1
1
1
1
1
1
1
1
1
1
1
1
1
1
1
1
1
1
1
1
1
1
1
1
1
1
1
1
1
1
1
1
1
1
1
1
1
1
1
1
1
1
1
1
1
1
1
1
1
1
1
1
1
1
1
1
1
1
1
1
1
1
1
1
1
1
1
1
1
1
1
1
1
1
1
1
1
1
1
1
1
1
1
1
1
1
1
1
1
1
1
1
1
1
1
1
1
1
1
1
1
1
1
1
1
1
1
1
1
1
1
1
1
1
1
1
1
1
1
1
1
1
1
1
1
1
1
1
1
1
1
1
1
1
1
1
1
1
1
1
1
1
1
1
1
1
1
1
1
1
1
1
1
1
1
1
1
1
1
1
1
1
1
1
1
1
1
1
1
1
1
1
1
1
1
1
1
1
1
1
1
1
1
1
1
1
1
1
1
1
1
1
1
1
1
1
1
1
1
1
1
1
1
1
1
1
1
1
1
1
1
1
1
1
1
1
1
1
1
1
1
1
1
1
1
1
1
1
1
1
1
1
1
1
1
1
1
1
1
1
1
1
1
1
1
1
1
1
1
1
1
1
1
1
1
1
1
1
1
1
1
1
1
1
1
1
1
1
1
1
1
1
1
1
1
1
1
1
1
1
1
1
1
1
1
1
1
1
1
1
1
1
1
1
1
1
1
1
1
1
1
1
1
1
1
1
1
1
1
1
1
1
1
1
1
1
1
1
1
1
1
1
1
1
1
1
1
1
1
1
1
1
1
1
1
1
1
1
1
1
1
1
1
1
1
1
1
1
1
1
1
1
1
1
1
1
1
1
1
1
1
1
1
1
1
1
1
1
1
1
1
1
1
1
1
1
1
1
1
1
1
1
1
1
1
1
1
1
1
1
1
1
1
1
1
1
1
1
1
1
1
1
1
1
1
1
1
1
1
1
1
1
1
1
1
1
1
1
1
1
1
1
1
1
1
1
1
1
1
1
1
1
1
1
1
1
1
1
1
1
1
1
1
1
1
1
1
1
1
1
1
1
1
1
1
1
1
1
1
1
1
1
1
1
1
1
1
1
1
1
1
1
1
1
1
1
1
1
1
1
1
1
1
1
1
1
1
1
1
1
1
1
1
1
1
1
1
1
1
1
1
1
1
1
1
1
1
1
1
1
1
1
1
1
1
1
1
1
1
1
1
1
1
1
1
1
1
1
1
1
1
1
1
1
1
1
1
1
1
1
1
1
1
1
1
1
1
1
1
1
1
1
1
1
1
1
1
1
1
1
1
1
1
1
1
1
1
1
1
1
1
1
1
1
1
1
1
1
1
1
1
1
1
1
1
1
1
1
1
1
1
1
1
1
1
1
1
1
1
1
1
1
1
1
1
1
1
1
1
1
1
1
1
1
1
1
1
1
1
1
1
1
1
1
1
1
1
1
1
1
1
1
1
1
1
1
1
1
1
1
1
1

SCALARS density double 1
LOOKUP_TABLE default
0.999933
0.999905
0.999926
0.999945
0.999898
0.999922
0.999968
0.999919
0.999908
0.999986
0.999986
0.999933
0.99997
1.00002
0.999985
0.999968
1.00001
1.00001
0.999978
0.999988
1.00003
0.999999
0.999971
1.00001
1.00002
0.999974
0.999984
1.00003
0.999999
0.999971
1.00001
1.00002
0.999981
0.99999
1.00003
1.00001
0.999979
1.00003
1.00006
1.00001
1.00001
1.00008
1.00007
1.00003
1.00007
1.00009
1.00005
1.00006
1.00009
1.00006
0.999897
0.999879
0.999895
0.999899
0.999884
0.999883
0.999915
0.99993
0.999894
0.999924
0.999963
0.999938
0.999948
0.999992
0.99998
0.99997
1
1.00001
0.999978
0.99999
1.00002
0.999998
0.999972
1.00001
1.00002
0.999981
0.999987
1.00002
1
0.999979
1.00001
1.00002
0.999992
0.999993
1.00002
1.00002
1.00001
1.00004
1.00005
1.00003
1.00007
1.00009
1.00006
1.00008
1.0001
1.0001
1.00009
1.00009
1.0001
1.00009
0.999824
0.999854
0.999798
0.999797
0.999856
0.999832
0.999797
0.999849
0.999895
0.999853
0.999866
0.99994
0.99993
0.999906
0.99996
1
0.999959
0.999963
1.00002
1.00001
0.999965
1
1.00003
0.999983
0.999973
1.00002
1.00002
0.999965
0.999995
1.00003
0.99999
0.999973
1.00003
1.00003
0.999991
1.00003
1.00008
1.00006
1.00004
1.00012
1.00012
1.00008
1.00012
1.00017
1.00014
1.00011
1.00017
1.00017
1.00011
1.00014
0.999717
0.999709
0.999701
0.999674
0.999676
0.999709
0.9997
0.999714
0.999755
0.999769
0.99978
0.999819
0.99986
0.999865
0.999898
0.999936
0.999943
0.99996
0.999981
0.999981
0.999989
1
0.99999
0.999997
1
0.999991
1
1.00001
0.999993
1.00001
1.00002
1.00001
1.00003
1.00005
1.00005
1.00008
1.00011
1.00012
1.00015
1.00018
1.00018
1.0002
1.00023
1.00023
1.00023
1.00026
1.00025
1.00023
1.00023
1.00022
0.999562
0.999463
0.999489
0.9995
0.999448
0.999468
0.999532
0.999521
0.999515
0.99961
0.999645
0.999637
0.999694
0.999794
0.9998
0.9998
0.999904
0.999946
0.99991
0.999945
1.00002
0.999987
0.999949
1.00001
1.00003
0.999966
0.999979
1.00004
1.00001
0.999973
1.00004
1.00007
1.00004
1.00007
1.00017
1.00016
1.00016
1.00024
1.00029
1.00028
1.00029
1.00038
1.00037
1.00034
1.0004
1.00042
1.00037
1.00038
1.00041
1.00033
0.999288
0.999211
0.999179
0.999205
0.999178
0.999195
0.999209
0.999231
0.999288
0.999309
0.999368
0.999453
0.999485
0.999542
0.999641
0.999713
0.999738
0.999817
0.999893
0.999913
0.999924
0.999969
1
0.999973
0.99998
1.00001
1.00002
0.999986
1.00002
1.00006
1.00006
1.00008
1.00015
1.00021
1.00022
1.00028
1.00036
1.00039
1.00041
1.00047
1.00052
1.00051
1.00056
1.00058
1.00058
1.00059
1.00058
1.0006
1.00057
1.00053
0.998896
0.998918
0.998863
0.998814
0.998848
0.998867
0.998834
0.9989
0.998962
0.998972
0.999013
0.999138
0.999214
0.999224
0.999364
0.999499
0.999539
0.99961
0.999767
0.999833
0.99982
0.999913
0.999987
0.999953
0.999945
1.00004
1.00003
0.999995
1.00006
1.00014
1.00013
1.00017
1.00031
1.00036
1.00038
1.00048
1.00059
1.00058
1.00062
1.00071
1.00074
1.00073
1.00077
1.00083
1.0008
1.0008
1.00084
1.0008
1.00076
1.00079
0.998542
0.998548
0.998496
0.998507
0.998533
0.998518
0.998557
0.998561
0.998582
0.998664
0.998702
0.998732
0.998823
0.998969
0.999003
0.999104
0.999294
0.999404
0.999475
0.999617
0.999771
0.999803
0.999849
0.99995
0.999997
0.999977
1.00002
1.00011
1.00015
1.00016
1.0003
1.00041
1.00044
1.00052
1.00067
1.00073
1.00072
1.00084
1.00089
1.0009
1.00092
1.00098
1.00099
1.00097
1.00102
1.001
1.00102
1.00103
1.00102
1.00101
0.998236
0.998221
0.998244
0.998332
0.998297
0.998287
0.998372
0.998365
0.998345
0.998388
0.998466
0.998435
0.998503
0.998615
0.998677
0.998743
0.998904
0.999077
0.999166
0.999335
0.999539
0.999643
0.999723
0.999865
0.999973
0.999982
1.00007
1.0002
1.00026
1.00034
1.00049
1.00063
1.00067
1.00079
1.00089
1.00092
1.00095
1.00102
1.00107
1.00103
1.00109
1.00112
1.00111
1.0011
1.00117
1.00117
1.00114
1.00119
1.00124
1.00121
0.997974
0.998076
0.998156
0.998175
0.998219
0.998238
0.998285
0.998277
0.998318
0.998302
0.998279
0.998355
0.998342
0.9983
0.998405
0.998498
0.998527
0.998622
0.998864
0.999016
0.999121
0.999381
0.999602
0.99971
0.999828
1.00008
1.00019
1.00026
1.00045
1.00066
1.00071
1.0008
1.00099
1.00103
1.00102
1.00108
1.00117
1.00112
1.0011
1.00119
1.00117
1.00115
1.0012
1.0012
1.00124
1.00124
1.0013
1.00128
1.00133
1.0014
0.997895
0.99807
0.998116
0.998078
0.998223
0.998272
0.998269
0.998253
0.998377
0.99834
0.9983
0.998337
0.998329
0.998306
0.998255
0.998323
0.998306
0.998355
0.998489
0.998637
0.998809
0.999021
0.999317
0.999519
0.999783
1.00004
1.00029
1.00045
1.00069
1.00084
1.00096
1.00105
1.00113
1.00116
1.00113
1.0012
1.00115
1.00116
1.00118
1.00121
1.00121
1.00118
1.00129
1.00129
1.00129
1.0013
1.00142
1.00138
1.00139
1.00148
0.997977
0.998019
0.998084
0.9981
0.998179
0.998141
0.998257
0.998288
0.998286
0.998345
0.998422
0.998348
0.998376
0.998405
0.998352
0.998223
0.998298
0.998294
0.998204
0.99832
0.998552
0.998715
0.998909
0.999359
0.999712
0.999981
1.0003
1.00072
1.00086
1.00098
1.00115
1.00125
1.00116
1.00116
1.00126
1.00116
1.00115
1.0012
1.00127
1.0012
1.00128
1.00136
1.00134
1.00135
1.00146
1.00142
1.00145
1.00146
1.00152
1.0015
0.998057
0.997994
0.998055
0.998069
0.998081
0.998005
0.998144
0.998174
0.998151
0.99822
0.998334
0.998377
0.998335
0.998441
0.998437
0.998384
0.998328
0.998288
0.99825
0.998217
0.998293
0.998488
0.998757
0.999107
0.999527
0.999982
1.00039
1.0007
1.00096
1.00113
1.00121
1.00119
1.00121
1.0012
1.00119
1.0012
1.00122
1.00133
1.00131
1.00136
1.00144
1.00148
1.00148
1.00148
1.00158
1.00153
1.00154
1.00153
1.00159
1.00154
0.998098
0.998151
0.998121
0.997998
0.998089
0.998083
0.998011
0.998004
0.998117
0.998098
0.998095
0.998219
0.998332
0.998302
0.998403
0.99853
0.998421
0.998378
0.99842
0.998372
0.998282
0.998432
0.998768
0.998952
0.999392
0.9999
1.00036
1.00056
1.0009
1.00112
1.00108
1.00111
1.0012
1.00124
1.00116
1.0013
1.00142
1.00137
1.00146
1.00156
1.00155
1.00151
1.00161
1.00162
1.00154
1.00154
1.00165
1.00155
1.00153
1.00159
0.998246
0.998259
0.998216
0.99814
0.998212
0.998175
0.998129
0.998045
0.998099
0.998061
0.997996
0.998055
0.998149
0.998174
0.998263
0.998347
0.998519
0.998515
0.998528
0.998563
0.998621
0.998674
0.998739
0.99911
0.999359
0.999748
1.00004
1.00048
1.00065
1.0008
1.00098
1.0011
1.00118
1.0012
1.0014
1.00145
1.00151
1.00154
1.00159
1.00163
1.00159
1.00158
1.00161
1.00156
1.00157
1.00153
1.0016
1.00155
1.00154
1.00154
0.998387
0.998191
0.998274
0.998353
0.998282
0.998158
0.998285
0.998245
0.9981
0.998093
0.99815
0.998031
0.997928
0.998103
0.998124
0.998164
0.998312
0.998588
0.998626
0.998772
0.999013
0.999022
0.999082
0.999256
0.99949
0.999517
0.999811
1.00011
1.00034
1.00048
1.00083
1.00107
1.00114
1.00141
1.00154
1.00157
1.00156
1.00171
1.00165
1.00154
1.00161
1.00165
1.00154
1.00152
1.00165
1.00157
1.00151
1.00158
1.00167
1.00151
0.9983
0.99821
0.99826
0.998176
0.998226
0.998163
0.998229
0.998243
0.99824
0.998197
0.99817
0.99816
0.998077
0.997996
0.998079
0.998088
0.998203
0.998402
0.998755
0.999018
0.999185
0.999462
0.99962
0.999517
0.999462
0.999558
0.999585
0.999627
0.999903
1.00035
1.0006
1.00091
1.00128
1.00147
1.00156
1.00158
1.00169
1.0016
1.00157
1.00162
1.00159
1.00157
1.00159
1.00162
1.00164
1.00161
1.00168
1.0016
1.00164
1.00162
0.998069
0.998157
0.998136
0.997875
0.99809
0.998142
0.998047
0.998049
0.998255
0.998232
0.998114
0.998234
0.998258
0.998114
0.998001
0.998181
0.998219
0.998306
0.998721
0.99913
0.999412
0.999737
0.999913
0.999849
0.999623
0.999547
0.999389
0.99939
0.999676
1.00007
1.00044
1.00085
1.00128
1.00141
1.00147
1.00166
1.00161
1.00152
1.00156
1.00169
1.0016
1.00156
1.00172
1.00172
1.00162
1.00166
1.00185
1.00165
1.00165
1.00175
0.998031
0.997905
0.998011
0.997962
0.99803
0.997945
0.998042
0.99805
0.998001
0.99814
0.998194
0.998169
0.99821
0.998301
0.998262
0.998222
0.998365
0.998583
0.99872
0.999123
0.999644
0.999853
0.999952
1.00002
0.999943
0.999468
0.999366
0.999453
0.999555
0.999772
1.0003
1.00078
1.00095
1.00123
1.00146
1.00147
1.00148
1.00161
1.00165
1.0016
1.00164
1.00177
1.00168
1.00167
1.00178
1.0017
1.00173
1.00172
1.00183
1.00171
0.997997
0.997763
0.99798
0.998076
0.998046
0.99784
0.998063
0.998056
0.997877
0.997945
0.998134
0.998123
0.998072
0.998307
0.998485
0.998406
0.998605
0.998858
0.999075
0.999218
0.999597
0.999882
0.999936
1.00003
0.999865
0.999766
0.999539
0.999536
0.999523
0.99975
1.00014
1.00035
1.00067
1.001
1.00129
1.00131
1.00148
1.0017
1.00165
1.00164
1.00178
1.00183
1.00169
1.00169
1.00188
1.00173
1.00169
1.00176
1.00192
1.00173
0.99778
0.997878
0.998017
0.997782
0.997986
0.997965
0.997918
0.997879
0.998021
0.997946
0.99785
0.998039
0.998147
0.998139
0.998377
0.998782
0.998877
0.999074
0.999385
0.999611
0.999518
0.999681
0.999932
0.999789
0.999835
0.999936
0.999934
0.999639
0.99973
0.999843
0.99975
1.00002
1.00045
1.00076
1.00091
1.00135
1.00162
1.00159
1.00167
1.00186
1.00177
1.0017
1.00184
1.00185
1.00176
1.00178
1.00196
1.00175
1.0018
1.0019
0.997787
0.997937
0.997993
0.997716
0.997953
0.99801
0.997977
0.997893
0.998075
0.9981
0.9979
0.998
0.998168
0.998262
0.998383
0.99881
0.999269
0.999411
0.99966
0.999806
0.999734
0.999597
0.999585
0.999732
0.999845
1.00001
1.00003
1.00007
0.999908
0.999701
0.999624
0.999785
1.0001
1.00033
1.00085
1.00127
1.00143
1.00156
1.00172
1.00181
1.00168
1.00171
1.00184
1.00179
1.00175
1.00179
1.00195
1.00178
1.00179
1.00187
0.998057
0.997702
0.997932
0.99802
0.997984
0.997786
0.998122
0.998095
0.997864
0.998001
0.998214
0.998026
0.998002
0.998413
0.998621
0.998781
0.999295
0.99982
0.999829
0.999805
0.99989
0.999658
0.999384
0.999593
0.99991
0.999947
1.00019
1.00034
1.00004
0.999673
0.999702
0.999695
0.999691
1.00024
1.00079
1.00102
1.00126
1.00169
1.00175
1.00159
1.00181
1.00196
1.00174
1.00171
1.00199
1.00183
1.00173
1.00184
1.00204
1.00171
0.998023
0.997755
0.998015
0.997931
0.997988
0.997775
0.997929
0.997946
0.997891
0.997888
0.998041
0.998187
0.998167
0.998419
0.998828
0.999108
0.999383
0.999768
1.00003
0.999934
0.999752
0.999689
0.9996
0.999515
0.999719
1.00008
1.0003
1.00023
1.00009
0.999991
0.999709
0.99954
0.999743
1.0001
1.00042
1.00077
1.00125
1.00153
1.00157
1.00178
1.0019
1.0019
1.00189
1.00193
1.002
1.00188
1.00192
1.00184
1.00201
1.00187
0.997764
0.998088
0.998028
0.997537
0.997892
0.998036
0.997687
0.997616
0.998023
0.997994
0.99775
0.998204
0.998587
0.998596
0.998869
0.999518
0.999692
0.999624
0.99995
0.999996
0.999721
0.999623
0.999769
0.999739
0.999668
1.00008
1.00013
1.0001
1.00026
1.00015
0.999786
0.999659
0.999891
0.999846
1.00003
1.0007
1.00107
1.00115
1.00154
1.00198
1.00179
1.00176
1.00212
1.00209
1.00179
1.00195
1.00225
1.00189
1.00178
1.0021
0.997993
0.997822
0.997863
0.997742
0.997889
0.997814
0.997911
0.997816
0.997869
0.998029
0.998028
0.998094
0.998502
0.998951
0.999165
0.999457
0.999819
0.99987
0.99961
0.999714
0.999798
0.999743
0.999732
0.999853
1.00001
0.999793
0.999966
1.0002
1.00023
1.00013
1.00011
1.00012
0.999754
0.999738
1.00012
1.00043
1.0007
1.00123
1.00165
1.00172
1.00178
1.00198
1.00195
1.00189
1.00203
1.00197
1.00202
1.00205
1.00209
1.0019
0.998077
0.997469
0.997755
0.998104
0.997894
0.997513
0.998054
0.998128
0.997659
0.997811
0.998259
0.998283
0.998313
0.999108
0.999561
0.999557
0.999736
0.999918
0.999691
0.999404
0.999717
0.999878
0.999836
1.00003
1.00001
0.999866
0.99981
1.00007
1.00012
1.00022
1.00049
1.00014
0.999814
0.999864
1.00002
1.00004
1.0005
1.00131
1.00144
1.00154
1.00199
1.00217
1.00179
1.00188
1.00229
1.00203
1.0018
1.00212
1.00237
1.00191
0.997541
0.997735
0.997842
0.997524
0.997767
0.997813
0.997651
0.997674
0.997936
0.997873
0.997928
0.998505
0.99885
0.998998
0.999553
0.99996
0.999755
0.999573
0.999664
0.99963
0.999403
0.999787
1.00017
1
0.999953
0.999934
0.999941
0.999775
1.00012
1.00058
1.00036
1.00024
1.00024
0.999988
0.999671
1.00002
1.00061
1.00078
1.00117
1.00183
1.00191
1.00186
1.0022
1.00228
1.00203
1.00214
1.00239
1.00206
1.00208
1.00238
0.997442
0.997982
0.997884
0.997262
0.99777
0.997996
0.997588
0.997485
0.998151
0.998255
0.998027
0.998675
0.999335
0.999432
0.99947
0.99994
0.999886
0.99941
0.999458
0.999588
0.999614
0.999712
1.00002
1.00009
0.99994
1.00001
0.999872
0.999902
1.00019
1.00036
1.00044
1.00052
1.0005
0.999928
0.999778
1.00017
1.00022
1.0004
1.00108
1.0017
1.00158
1.00173
1.00229
1.00226
1.00195
1.00215
1.00253
1.0021
1.00196
1.00236
0.997898
0.997339
0.997502
0.997904
0.997652
0.997296
0.997852
0.997953
0.997588
0.998012
0.998637
0.998745
0.999
0.999713
0.999849
0.999479
0.999598
0.999655
0.999342
0.99938
0.999808
0.999872
0.999719
1.00002
1.00017
0.999857
0.999894
1.0002
1.00012
1.00015
1.00058
1.00071
1.00031
1.00024
1.00032
0.999908
0.999978
1.00074
1.00109
1.00116
1.0018
1.0023
1.0019
1.00201
1.00259
1.00231
1.00196
1.00244
1.0026
1.002
0.997778
0.99721
0.99756
0.997878
0.997651
0.997284
0.997786
0.997992
0.997686
0.9979
0.998679
0.999059
0.999106
0.999686
0.999984
0.999682
0.999331
0.999537
0.999608
0.999507
0.999711
0.99989
0.999859
0.99981
0.999929
1.00006
1.00016
1.00012
1.00009
1.00027
1.0005
1.00042
1.00048
1.00063
1.00021
0.99984
1.0001
1.00061
1.00071
1.00116
1.00189
1.00212
1.00196
1.00216
1.00251
1.00231
1.00214
1.00235
1.00262
1.00226
0.99709
0.998074
0.997895
0.997063
0.997712
0.998185
0.997486
0.997439
0.998307
0.99842
0.998242
0.999232
0.999951
0.999618
0.999631
0.999924
0.99957
0.999168
0.999633
0.999821
0.999583
0.999684
0.999906
0.999746
0.99971
1.00022
1.00031
1.0001
1.00026
1.00042
1.00022
1.00039
1.0009
1.00056
1.00008
1.00028
1.0003
0.999875
1.00049
1.00158
1.00146
1.00156
1.00246
1.00251
1.00178
1.00226
1.00288
1.00215
1.0019
1.00287
0.997669
0.997779
0.997599
0.997391
0.997636
0.99773
0.997636
0.997567
0.997967
0.998521
0.998762
0.999141
0.99971
0.999811
0.999506
0.999412
0.999449
0.999428
0.999386
0.999738
0.999802
0.999672
0.999597
0.999754
1
0.999983
1.00019
1.0004
1.00037
1.00019
1.00024
1.00067
1.00072
1.00066
1.00072
1.00055
1.00009
1.00016
1.00071
1.00106
1.00137
1.00199
1.00231
1.0023
1.00235
1.00241
1.00247
1.00251
1.00236
1.00229
0.998193
0.996856
0.99726
0.99839
0.997551
0.996814
0.998016
0.998405
0.9976
0.998357
0.99965
0.999595
0.999161
0.99994
0.999941
0.999118
0.999281
0.999836
0.999739
0.999482
0.999944
0.999848
0.9995
0.999779
1.00001
1.00001
1.00018
1.00051
1.00024
1.00007
1.00051
1.00041
1.00032
1.00085
1.00108
1.00021
1
1.00074
1.00042
1.00028
1.00153
1.00234
1.00162
1.00195
1.0031
1.00252
1.00172
1.00273
1.00317
1.002
0.997274
0.997549
0.99768
0.997326
0.997478
0.997666
0.997523
0.997786
0.9984
0.998598
0.999037
0.999684
0.999795
0.999437
0.999492
0.999473
0.999333
0.999498
0.999765
0.999766
0.999479
0.999651
0.999786
0.999685
0.999818
1.00014
1.00036
1.00023
1.00031
1.00058
1.00036
1.0003
1.00068
1.00094
1.00073
1.00062
1.00069
1.00027
1.00028
1.00099
1.00141
1.00154
1.00223
1.00257
1.00224
1.00259
1.0029
1.00241
1.00242
1.00299
0.996823
0.998404
0.997842
0.996414
0.997574
0.998468
0.997309
0.997203
0.998931
0.999255
0.998586
0.99952
1.00031
0.999612
0.998966
0.999651
0.999676
0.999301
0.999624
0.999823
0.999586
0.99944
0.999812
0.999891
0.999847
1.00015
1.00016
1.00018
1.00054
1.00053
1.0003
1.00048
1.00091
1.00061
1.00055
1.00121
1.0007
0.999852
1.00048
1.00143
1.00087
1.0011
1.00269
1.00273
1.00173
1.0025
1.00356
1.00244
1.00186
1.00319
0.998031
0.996924
0.996942
0.998
0.997363
0.996972
0.997989
0.998389
0.997927
0.998841
0.999817
0.999507
0.999431
0.999813
0.999687
0.999086
0.999556
0.999859
0.999494
0.999483
0.999778
0.999773
0.999538
0.999908
1.0002
0.999909
1.00004
1.00045
1.00034
1.00028
1.00059
1.00073
1.00039
1.00062
1.00123
1.00074
1.00042
1.00079
1.00075
1.0003
1.00119
1.00224
1.00167
1.00201
1.00322
1.00283
1.00201
1.00327
1.00339
1.00206
0.998017
0.996262
0.99719
0.998388
0.997439
0.996568
0.998131
0.998841
0.997996
0.998569
1.00006
0.999832
0.998976
0.999537
0.999754
0.999288
0.999246
0.999784
0.999588
0.99928
0.999642
0.999754
0.999719
0.999906
1.00005
1.00004
1.00016
1.00029
1.00023
1.00039
1.00086
1.0006
1.00037
1.00097
1.00112
1.00064
1.00075
1.00131
1.00053
1.00017
1.00151
1.00212
1.00144
1.00208
1.0034
1.00281
1.00202
1.00293
1.00377
1.00247
0.995991
0.99842
0.997835
0.996012
0.997358
0.998558
0.997143
0.997405
0.999408
0.999567
0.998667
0.999741
1.00022
0.999136
0.999082
0.999903
0.999908
0.999184
0.999512
0.999786
0.999422
0.999568
0.999989
0.999938
0.999862
1.00019
1.00027
1.00009
1.00039
1.00071
1.00039
1.00053
1.00102
1.00055
1.00042
1.00125
1.00141
1.00025
1.00046
1.00164
1.00086
1.00074
1.00279
1.00318
1.00157
1.00279
1.00429
1.00245
1.00176
1.00434
0.997091
0.998011
0.997326
0.99648
0.9974
0.998167
0.997528
0.997612
0.999169
0.999689
0.999237
0.999427
0.999915
0.999398
0.999042
0.99967
0.999739
0.999356
0.99927
0.999565
0.999616
0.999573
0.99985
1.00001
1.00004
1.00009
1.00009
1.0002
1.00047
1.00042
1.00045
1.00085
1.00095
1.00057
1.00065
1.0014
1.00116
1.00059
1.001
1.0012
1.00078
1.00126
1.00258
1.00269
1.00227
1.00291
1.0035
1.00317
1.00259
1.00296
0.998865
0.995405
0.996379
0.999288
0.997244
0.995656
0.998542
0.999413
0.997691
0.998818
1.00077
0.999815
0.998546
0.999657
1.00006
0.999035
0.999238
0.99982
0.999447
0.999092
0.999652
0.999921
0.999719
1.00005
1.00025
0.999979
1.00008
1.00043
1.0002
1.00031
1.00093
1.00082
1.00038
1.00093
1.00145
1.00052
1.00069
1.00197
1.00103
0.999763
1.00152
1.00289
1.00105
1.00159
1.00465
1.00324
1.00109
1.00399
1.00504
1.00168
0.996688
0.996703
0.997498
0.997269
0.997104
0.997446
0.997665
0.998465
0.998791
0.999154
0.999834
0.999843
0.999566
0.999315
0.99955
0.999521
0.999273
0.999331
0.999413
0.999495
0.999556
0.999747
1.00003
1.00009
1.00002
1.00012
1.0002
1.00014
1.00024
1.00051
1.00065
1.00063
1.00078
1.00104
1.0009
1.00086
1.00125
1.0012
1.0009
1.00091
1.0015
1.00169
1.00203
1.00286
1.00277
1.00324
1.00354
1.0029
1.00347
1.0043
0.995021
0.99987
0.998092
0.994222
0.997505
0.999753
0.996941
0.996683
1.00022
1.0003
0.998408
0.999746
1.00071
0.999288
0.998699
0.999746
0.999675
0.998772
0.999266
0.999732
0.999354
0.999499
1.00016
1.00016
0.999973
1.00027
1.00016
0.999985
1.00051
1.00078
1.00034
1.00073
1.00148
1.00071
1.0004
1.00165
1.00162
1.00017
1.00091
1.00253
1.00073
1.00022
1.00371
1.00385
1.00084
1.00284
1.00618
1.00265
1.00096
1.00547
0.998717
0.996074
0.996128
0.998232
0.997105
0.996605
0.998008
0.998978
0.998422
0.999238
1.0002
0.999679
0.999336
0.999589
0.999675
0.999057
0.998987
0.999368
0.999308
0.999281
0.999603
0.999943
1.00006
1.00013
1.0002
1.00011
1.00008
1.00017
1.0003
1.00046
1.00072
1.00081
1.00076
1.00106
1.00123
1.0009
1.00097
1.00146
1.0014
1.00075
1.00154
1.0025
1.00181
1.00239
1.00407
1.00367
1.00204
1.00476
1.00511
1.00167
0.998886
0.99353
0.996141
1.00015
0.996965
0.994649
0.998979
1.00006
0.997795
0.998781
1.00109
1.00014
0.998745
0.999924
1.00015
0.998804
0.998714
0.999476
0.999345
0.999076
0.99967
1.00008
1.00002
1.00022
1.00027
0.999976
1.00006
1.00031
1.00014
1.00039
1.00105
1.00082
1.00044
1.00127
1.00164
1.00042
1.00058
1.00227
1.00132
0.999891
1.00207
1.0035
1.00099
1.00146
1.00586
1.00403
1.00077
1.0046
1.00701
1.00254
0.993624
0.999424
0.998193
0.994006
0.996935
0.999584
0.996858
0.997041
1.00003
1.00034
0.998888
0.999542
1.00053
0.999299
0.998705
0.999258
0.999159
0.99861
0.998998
0.999661
0.999565
0.999738
1.00032
1.00031
1.00008
1.00016
1.00011
1.00003
1.0005
1.00078
1.00052
1.00085
1.00136
1.00095
1.00072
1.00152
1.00155
1.00044
1.00133
1.00248
1.00125
1.00087
1.00377
1.00427
1.00118
1.00355
1.0072
1.00264
1.00136
1.00836
0.995922
1.00045
0.997107
0.993437
0.997521
0.99946
0.996913
0.997244
1.00034
1.00037
0.999114
1.00008
1.00062
0.999392
0.998968
0.99942
0.999024
0.998478
0.999112
0.999699
0.999685
1
1.00046
1.00025
1.00003
1.00023
1.00004
0.999829
1.00039
1.00076
1.00045
1.00078
1.0015
1.00098
1.00052
1.0014
1.00156
1.00036
1.00103
1.00265
1.00145
1.00073
1.00377
1.00443
1.00142
1.00303
1.00732
1.00404
1.00169
1.00523
1.00093
0.98917
0.994083
1.00168
0.996809
0.993666
0.998524
1.00056
0.997832
0.998695
1.00152
1.00033
0.998528
0.999333
0.999811
0.998437
0.998129
0.999082
0.999134
0.999142
0.999937
1.00044
1.00027
1.0003
1.00029
0.99998
1.00001
1.00027
1.00022
1.00053
1.00121
1.001
1.00054
1.00147
1.00175
1.0004
1.00068
1.00242
1.00151
0.999932
1.00272
1.00427
1.00088
1.00185
1.00726
1.00461
0.999077
1.00716
1.01152
0.998743
0.994359
0.994018
0.996812
0.998267
0.995881
0.996804
0.998476
0.999009
0.998689
1.00035
1.00088
1.00013
0.999664
0.999783
0.99917
0.998464
0.998564
0.99878
0.998818
0.999414
1.00016
1.00038
1.00026
1.00039
1.00022
0.999792
0.999823
1.00025
1.00029
1.00047
1.00104
1.00126
1.00085
1.00108
1.00145
1.00088
1.0005
1.00147
1.00172
1.00092
1.00164
1.00356
1.00261
1.00222
1.00433
1.00565
1.00246
1.00439
1.00806
1.00889
0.993024
1.00764
0.997463
0.99049
0.997367
1.00108
0.995993
0.996348
1.00109
1.00098
0.998906
1.00039
1.00128
0.999147
0.998056
0.998942
0.99855
0.997778
0.998688
0.999848
0.999996
1.00043
1.00095
1.00053
1.00006
1.00012
0.999737
0.999548
1.00044
1.0009
1.00045
1.00118
1.00204
1.00086
1.00016
1.0019
1.00164
0.999487
1.00115
1.00391
1.00114
0.999932
1.00582
1.00569
0.998675
1.00412
1.01227
1.00133
0.995878
1.0233

VECTORS velocity double
5.70814e-006 8.68474e-006 0
-2.68699e-007 1.86492e-005 0
-6.38523e-007 1.07975e-005 0
-3.61017e-006 1.15997e-005 0
4.68189e-006 1.66848e-005 0
-7.70439e-006 1.80405e-005 0
-1.14977e-005 5.85369e-006 0
-4.18017e-006 1.19993e-005 0
-4.19712e-006 1.45534e-005 0
-1.26353e-005 1.35741e-005 0
-5.5176e-006 3.20586e-006 0
-2.20593e-006 7.35435e-006 0
-7.48929e-006 6.11769e-006 0
-7.34725e-006 5.51699e-006 0
-2.13307e-006 2.97434e-007 0
-1.97343e-006 2.2705e-006 0
-3.58378e-006 4.19092e-008 0
-3.2431e-006 1.88149e-006 0
4.38023e-007 7.29162e-007 0
-1.74862e-007 7.47543e-008 0
-2.68912e-006 -1.4242e-006 0
1.56826e-006 1.56034e-006 0
6.58882e-007 -1.16768e-006 0
-4.27936e-006 -1.14755e-007 0
-1.06479e-006 -4.28304e-007 0
-4.27299e-007 8.2153e-007 0
-3.59135e-006 5.77301e-007 0
4.96307e-007 1.56191e-006 0
2.52586e-006 -1.48105e-006 0
-1.3413e-006 1.34738e-006 0
2.15296e-007 3.40664e-007 0
6.98242e-007 -8.67897e-007 0
-2.5033e-006 -1.87875e-006 0
-3.41919e-006 2.84942e-007 0
-1.98171e-006 -2.16505e-006 0
-2.66664e-006 -4.01122e-007 0
-7.78459e-006 -4.23652e-006 0
-7.51317e-006 -5.43126e-006 0
-2.47928e-006 -6.26219e-006 0
-6.41808e-006 -2.09103e-006 0
-1.20408e-005 -1.2007e-005 0
-4.24565e-006 -1.26453e-005 0
-4.76559e-006 -9.20508e-006 0
-1.16648e-005 -4.62088e-006 0
-7.2163e-006 -1.53488e-005 0
3.71981e-006 -1.36333e-005 0
-3.44342e-006 -9.43141e-006 0
-6.24181e-007 -8.3369e-006 0
5.90903e-007 -1.58873e-005 0
4.44309e-006 -6.1885e-006 0
4.77837e-006 3.33904e-005 0
4.28934e-008 5.77047e-005 0
3.10812e-006 4.61184e-005 0
-1.16658e-005 4.66322e-005 0
-7.56e-006 4.18589e-005 0
-2.73175e-006 5.92155e-005 0
-8.55599e-006 3.90055e-005 0
-1.91202e-005 3.2545e-005 0
-7.22731e-006 4.24195e-005 0
-9.40394e-006 4.13078e-005 0
-1.48331e-005 1.99683e-005 0
-8.83923e-006 2.59224e-005 0
-6.75315e-006 2.10151e-005 0
-9.51718e-006 1.53315e-005 0
-1.60391e-006 6.47476e-006 0
1.14572e-006 1.11913e-005 0
-2.72264e-006 4.18403e-006 0
-2.98311e-007 1.66308e-006 0
3.08852e-006 1.38223e-006 0
4.12178e-007 5.62235e-006 0
1.56667e-006 -1.40071e-006 0
2.73374e-006 -5.66045e-007 0
2.43068e-006 2.49615e-006 0
3.00887e-006 5.88832e-007 0
3.72228e-006 -2.7489e-006 0
2.65628e-006 3.23652e-006 0
2.23156e-006 4.48064e-007 0
3.39826e-006 -1.42438e-006 0
2.57586e-006 8.49604e-007 0
1.50673e-007 1.90903e-006 0
7.5131e-007 -4.03365e-006 0
3.98641e-006 -7.05769e-007 0
-6.27986e-007 -8.60575e-007 0
-2.45429e-006 -2.41549e-006 0
2.63441e-006 -9.36456e-006 0
-1.13443e-006 -4.49753e-006 0
-8.9267e-006 -1.21529e-005 0
-5.48868e-006 -1.82405e-005 0
-7.49544e-006 -2.1271e-005 0
-1.35198e-005 -1.62718e-005 0
-8.39048e-006 -3.54229e-005 0
-6.79148e-006 -3.61099e-005 0
-1.69585e-005 -2.51069e-005 0
-7.04652e-006 -3.27232e-005 0
-1.80119e-006 -4.95452e-005 0
-7.48941e-006 -3.23805e-005 0
-9.47656e-006 -3.8604e-005 0
2.85516e-006 -3.77619e-005 0
1.17724e-006 -4.71961e-005 0
3.80965e-006 -2.61599e-005 0
5.32549e-006 8.13424e-005 0
-7.35028e-006 9.50778e-005 0
1.03937e-005 0.000100009 0
-2.21738e-006 0.000114872 0
-1.60034e-005 8.44525e-005 0
-1.22713e-005 0.000102154 0
-3.22887e-006 9.94963e-005 0
-1.77136e-005 8.51638e-005 0
-2.35923e-005 7.43727e-005 0
-1.10754e-005 7.94063e-005 0
-1.11765e-005 5.96849e-005 0
-2.37716e-005 5.14275e-005 0
-1.43204e-005 4.49221e-005 0
-7.74524e-006 3.56141e-005 0
-1.34554e-005 2.45475e-005 0
-1.12295e-005 1.77148e-005 0
-1.91307e-006 1.41341e-005 0
-3.91015e-006 1.04348e-005 0
-5.63992e-006 5.82689e-007 0
-2.05907e-006 3.59996e-006 0
-1.5185e-006 5.81539e-006 0
-2.98148e-006 -5.14583e-007 0
-3.7308e-006 -2.25281e-006 0
-3.96786e-006 2.98673e-006 0
-2.98372e-006 1.56349e-006 0
-2.73232e-006 -1.51374e-007 0
-4.04906e-006 -2.83114e-006 0
-4.2461e-006 2.90522e-006 0
-2.95679e-006 2.97088e-006 0
-1.0911e-006 -4.08174e-006 0
-2.06307e-006 -2.77423e-006 0
-5.30336e-006 2.54652e-006 0
-2.79923e-006 -6.4215e-006 0