# vtk DataFile Version 4.0
SiwiRVisFile
ASCII
DATASET STRUCTURED_POINTS
DIMENSIONS 50 50 1
ORIGIN 0 0 0
SPACING 1 1 1
POINT_DATA 2500

SCALARS flags double 1
LOOKUP_TABLE default
1
1
1
1
1
1
1
1
1
1
1
1
1
1
1
1
1
1
1
1
1
1
1
1
1
1
1
1
1
1
1
1
1
1
1
1
1
1
1
1
1
1
1
1
1
1
1
1
1
1
1
1
1
1
1
1
1
1
1
1
1
1
1
1
1
1
1
1
1
1
1
1
1
1
1
1
1
1
1
1
1
1
1
1
1
1
1
1
1
1
1
1
1
1
1
1
1
1
1
1
1
1
1
1
1
1
1
1
1
1
1
1
1
1
1
1
1
1
1
1
1
1
1
1
1
1
1
1
1
1
1
1
1
1
1
1
1
1
1
1
1
1
1
1
1
1
1
1
1
1
1
1
1
1
1
1
1
1
1
1
1
1
1
1
1
1
1
1
1
1
1
1
1
1
1
1
1
1
1
1
1
1
1
1
1
1
1
1
1
1
1
1
1
1
1
1
1
1
1
1
1
1
1
1
1
1
1
1
1
1
1
1
1
1
1
1
1
1
1
1
1
1
1
1
1
1
1
1
1
1
1
1
1
1
1
1
1
1
1
1
1
1
1
1
1
1
1
1
1
1
1
1
1
1
1
1
1
1
1
1
1
1
1
1
1
1
1
1
1
1
1
1
1
1
1
1
1
1
1
1
1
1
1
1
1
1
1
1
1
1
1
1
1
1
1
1
1
1
1
1
1
1
1
1
1
1
1
1
1
1
1
1
1
1
1
1
1
1
1
1
1
1
1
1
1
1
1
1
1
1
1
1
1
1
1
1
1
1
1
1
1
1
1
1
1
1
1
1
1
1
1
1
1
1
1
1
1
1
1
1
1
1
1
1
1
1
1
1
1
1
1
1
1
1
1
1
1
1
1
1
1
1
1
1
1
1
1
1
1
1
1
1
1
1
1
1
1
1
1
1
1
1
1
1
1
1
1
1
1
1
1
1
1
1
1
1
1
1
1
1
1
1
1
1
1
1
1
1
1
1
1
1
1
1
1
1
1
1
1
1
1
1
1
1
1
1
1
1
1
1
1
1
1
1
1
1
1
1
1
1
1
1
1
1
1
1
1
1
1
1
1
1
1
1
1
1
1
1
1
1
1
1
1
1
1
1
1
1
1
1
1
1
1
1
1
1
1
1
1
1
1
1
1
1
1
1
1
1
1
1
1
1
1
1
1
1
1
1
1
1
1
1
1
1
1
1
1
1
1
1
1
1
1
1
1
1
1
1
1
1
1
1
1
1
1
1
1
1
1
1
1
1
1
1
1
1
1
1
1
1
1
1
1
1
1
1
1
1
1
1
1
1
1
1
1
1
1
1
1
1
1
1
1
1
1
1
1
1
1
1
1
1
1
1
1
1
1
1
1
1
1
1
1
1
1
1
1
1
1
1
1
1
1
1
1
1
1
1
1
1
1
1
1
1
1
1
1
1
1
1
1
1
1
1
1
1
1
1
1
1
1
1
1
1
1
1
1
1
1
1
1
1
1
1
1
1
1
1
1
1
1
1
1
1
1
1
1
1
1
1
1
1
1
1
1
1
1
1
1
1
1
1
1
1
1
1
1
1
1
1
1
1
1
1
1
1
1
1
1
1
1
1
1
1
1
1
1
1
1
1
1
1
1
1
1
1
1
1
1
1
1
1
1
1
1
1
1
1
1
1
1
1
1
1
1
1
1
1
1
1
1
1
1
1
1
1
1
1
1
1
1
1
1
1
1
1
1
1
1
1
1
1
1
1
1
1
1
1
1
1
1
1
1
1
1
1
1
1
1
1
1
1
1
1
1
1
1
1
1
1
1
1
1
1
1
1
1
1
1
1
1
1
1
1
1
1
1
1
1
1
1
1
1
1
1
1
1
1
1
1
1
1
1
1
1
1
1
1
1
1
1
1
1
1
1
1
1
1
1
1
1
1
1
1
1
1
1
1
1
1
1
1
1
1
1
1
1
1
1
1
1
1
1
1
1
1
1
1
1
1
1
1
1
1
1
1
1
1
1
1
1
1
1
1
1
1
1
1
1
1
1
1
1
1
1
1
1
1
1
1
1
1
1
1
1
1
1
1
1
1
1
1
1
1
1
1
1
1
1
1
1
1
1
1
1
1
1
1
1
1
1
1
1
1
1
1
1
1
1
1
1
1
1
1
1
1
1
1
1
1
1
1
1
1
1
1
1
1
1
1
1
1
1
1
1
1
1
1
1
1
1
1
1
1
1
1
1
1
1
1
1
1
1
1
1
1
1
1
1
1
1
1
1
1
1
1
1
1
1
1
1
1
1
1
1
1
1
1
1
1
1
1
1
1
1
1
1
1
1
1
1
1
1
1
1
1
1
1
1
1
1
1
1
1
1
1
1
1
1
1
1
1
1
1
1
1
1
1
1
1
1
1
1
1
1
1
1
1
1
1
1
1
1
1
1
1
1
1
1
1
1
1
1
1
1
1
1
1
1
1
1
1
1
1
1
1
1
1
1
1
1
1
1
1
1
1
1
1
1
1
1
1
1
1
1
1
1
1
1
1
1
1
1
1
1
1
1
1
1
1
1
1
1
1
1
1
1
1
1
1
1
1
1
1
1
1
1
1
1
1
1
1
1
1
1
1
1
1
1
1
1
1
1
1
1
1
1
1
1
1
1
1
1
1
1
1
1
1
1
1
1
1
1
1
1
1
1
1
1
1
1
1
1
1
1
1
1
1
1
1
1
1
1
1
1
1
1
1
1
1
1
1
1
1
1
1
1
1
1
1
1
1
1
1
1
1
1
1
1
1
1
1
1
1
1
1
1
1
1
1
1
1
1
1
1
1
1
1
1
1
1
1
1
1
1
1
1
1
1
1
1
1
1
1
1
1
1
1
1
1
1
1
1
1
1
1
1
1
1
1
1
1
1
1
1
1
1
1
1
1
1
1
1
1
1
1
1
1
1
1
1
1
1
1
1
1
1
1
1
1
1
1
1
1
1
1
1
1
1
1
1
1
1
1
1
1
1
1
1
1
1
1
1
1
1
1
1
1
1
1
1
1
1
1
1
1
1
1
1
1
1
1
1
1
1
1
1
1
1
1
1
1
1
1
1
1
1
1
1
1
1
1
1
1
1
1
1
1
1
1
1
1
1
1
1
1
1
1
1
1
1
1
1
1
1
1
1
1
1
1
1
1
1
1
1
1
1
1
1
1
1
1
1
1
1
1
1
1
1
1
1
1
1
1
1
1
1
1
1
1
1
1
1
1
1
1
1
1
1
1
1
1
1
1
1
1
1
1
1
1
1
1
1
1
1
1
1
1
1
1
1
1
1
1
1
1
1
1
1
1
1
1
1
1
1
1
1
1
1
1
1
1
1
1
1
1
1
1
1
1
1
1
1
1
1
1
1
1
1
1
1
1
1
1
1
1
1
1
1
1
1
1
1
1
1
1
1
1
1
1
1
1
1
1
1
1
1
1
1
1
1
1
1
1
1
1
1
1
1
1
1
1
1
1
1
1
1
1
1
1
1
1
1
1
1
1
1
1
1
1
1
1
1
1
1
1
1
1
1
1
1
1
1
1
1
1
1
1
1
1
1
1
1
1
1
1
1
1
1
1
1
1
1
1
1
1
1
1
1
1
1
1
1
1
1
1
1
1
1
1
1
1
1
1
1
1
1
1
1
1
1
1
1
1
1
1
1
1
1
1
1
1
1
1
1
1
1
1
1
1
1
1
1
1
1
1
1
1
1
1
1
1
1
1
1
1
1
1
1
1
1
1
1
1
1
1
1
1
1
1
1
1
1
1
1
1
1
1
1
1
1
1
1
1
1
1
1
1
1
1
1
1
1
1
1
1
1
1
1
1
1
1
1
1
1
1
1
1
1
1
1
1
1
1
1
1
1
1
1
1
1
1
1
1
1
1
1
1
1
1
1
1
1
1
1
1
1
1
1
1
1
1
1
1
1
1
1
1
1
1
1
1
1
1
1
1
1
1
1
1
1
1
1
1
1
1
1
1
1
1
1
1
1
1
1
1
1
1
1
1
1
1
1
1
1
1
1
1
1
1
1
1
1
1
1
1
1
1
1
1
1
1
1
1
1
1
1
1
1
1
1
1
1
1
1
1
1
1
1
1
1
1
1
1
1
1
1
1
1
1
1
1
1
1
1
1
1
1
1
1
1
1
1
1
1
1
1
1
1
1
1
1
1
1
1
1
1
1
1
1
1
1
1
1
1
1
1
1
1
1
1
1
1
1
1
1
1
1
1
1
1
1
1
1
1
1
1
1
1
1
1
1
1
1
1
1
1
1
1
1
1
1
1
1
1
1
1
1
1
1
1
1
1
1
1
1
1
1
1
1
1
1
1
1
1
1
1
1
1
1
1
1
1
1
1
1
1
1
1
1
1
1
1
1
1
1
1
1
1
1
1
1
1
1
1
1
1
1
1
1
1
1
1
1
1
1
1
1
1
1
1
1
1
1
1
1
1
1
1
1
1
1
1
1
1
1
1
1
1
1
1
1
1
1
1
1
1
1
1
1
1
1
1
1
1
1
1
1
1
1
1
1
1
1
1
1
1
1
1
1
1
1
1
1
1
1
1
1
1
1
1
1
1
1
1
1
1
1
1
1
1
1
1
1
1
1
1
1
1
1
1
1
1
1
1
1
1
1
1
1
1
1
1
1
1
1
1
1
1
1
1
1
1
1
1
1
1
1
1
1
1
1
1
1
1
1
1
1
1
1
1
1
1
1
1
1
1
1
1
1
1
1
1
1
1
1
1
1
1
1
1
1
1
1
1
1
1
1
1
1
1
1
1
1
1
1
1
1
1
1
1
1
1
1
1
1
1
1
1
1
1
1
1
1
1
1
1
1
1
1
1
1
1
1
1
1
1
1
1
1
1
1
1
1
1
1
1
1
1
1
1
1
1
1
1
1
1
1
1
1
1
1
1
1
1
1
1
1
1
1
1
1
1
1
1
1
1
1
1
1
1
1
1
1
1
1
1
1
1
1
1
1
1
1
1
1
1
1
1
1
1
1
1
1
1
1
1
1
1
1
1
1
1
1
1
1
1
1
1
1
1
1
1
1
1
1
1
1
1
1
1
1
1
1
1
1
1
1
1
1
1
1
1
1
1
1
1
1
1
1
1
1
1
1
1
1
1
1
1
1
1
1
1
1
1
1
1
1
1
1
1
1
1
1
1
1
1
1
1
1
1
1
1
1
1
1
1
1
1
1
1
1
1
1
1
1
1
1
1
1
1
1
1
1
1
1
1
1
1
1
1
1
1
1
1
1
1
1
1
1
1
1
1
1
1
1
1
1
1
1
1
1
1
1
1
1
1
1
1
1
1
1
1
1
1
1
1
1
1
1
1
1
1
1
1
1
1
1
1
1
1
1
1
1
1
1
1
1
1
1
1
1
1
1
1
1
1
1
1
1
1
1
1
1
1
1
1
1
1
1
1
1
1
1
1
1
1
1
1
1
1
1
1
1
1
1
1
1
1
1
1
1
1
1
1
1
1
1
1
1
1
1
1
1
1
1
1
1
1
1
1
1
1
1
1
1
1
1
1
1
1
1
1
1
1
1
1
1
1
1
1
1
1
1
1
1
1
1
1
1
1
1
1
1
1
1
1
1
1
1
1
1
1
1
1
1
1
1
1
1
1
1
1
1
1
1
1
1
1
1

SCALARS density double 1
LOOKUP_TABLE default
0.999975
0.999952
0.999974
0.999986
0.999963
0.999966
1
0.999974
0.999954
1.00002
1.00001
0.999951
0.999992
1.00004
0.99999
0.999965
1.00002
1.00002
0.999978
0.999984
1.00002
1.00001
0.99997
1.00001
1.00002
0.999976
0.999988
1.00003
0.999994
0.999973
1.00002
1.00002
0.999976
0.999984
1.00003
1.00001
0.999957
1.00001
1.00005
0.999985
0.999985
1.00004
1.00002
0.999999
1.00003
1.00004
1.00001
1.00002
1.00005
1.00003
0.999951
0.999966
0.999968
0.999964
0.999957
0.999954
0.999979
0.999984
0.999956
0.999973
1.00001
0.999985
0.999965
1.00001
1.00001
0.999973
1
1.00002
0.999981
0.999993
1.00002
0.999995
0.999981
1.00001
1.00001
0.999987
0.99999
1.00002
1
0.999981
1
1.00002
0.999983
0.999995
1.00002
0.999991
0.999988
1.00003
1.00001
0.99999
1.00003
1.00004
1.00002
1.00002
1.00004
1.00004
1.00004
1.00003
1.00003
1.00005
0.999935
0.999956
0.999928
0.999909
0.999968
0.999955
0.999901
0.999959
0.999995
0.999935
0.999941
1.00001
0.999997
0.999946
1
1.00003
0.999972
0.999972
1.00003
1.00001
0.999962
1.00001
1.00004
0.999984
0.999973
1.00003
1.00002
0.999964
0.999992
1.00004
0.999988
0.999964
1.00003
1.00003
0.999966
0.999997
1.00005
1
0.999984
1.00005
1.00006
1
1.00003
1.00009
1.00004
1.00002
1.00008
1.00007
1.00004
1.00005
0.999898
0.999893
0.999882
0.999884
0.999889
0.999894
0.999911
0.999891
0.999914
0.999942
0.999926
0.999943
0.99997
0.999968
0.999968
0.999996
1
0.999981
0.999997
1.00001
0.999992
0.999989
1.00001
0.999999
0.999991
1.00001
1
0.999992
1.00001
1
0.99999
1
1.00001
0.999996
1
1.00003
1.00002
1.00003
1.00005
1.00006
1.00005
1.00008
1.00009
1.00007
1.00009
1.0001
1.00009
1.0001
1.00009
1.00008
0.999832
0.99976
0.999815
0.999822
0.999754
0.999783
0.99985
0.999816
0.999807
0.999871
0.999898
0.999859
0.9999
0.999974
0.999945
0.999922
0.999998
1.00002
0.99995
0.999976
1.00004
0.999993
0.999958
1.00002
1.00003
0.999967
0.999978
1.00004
1.00001
0.999956
1.00002
1.00005
0.999976
0.999994
1.00007
1.00005
1.00001
1.00008
1.00012
1.00008
1.0001
1.00016
1.00015
1.00012
1.00017
1.0002
1.00014
1.00014
1.0002
1.00014
0.999692
0.999628
0.999633
0.999622
0.999652
0.999639
0.999646
0.999682
0.999703
0.999727
0.999749
0.999797
0.999829
0.999844
0.9999
0.999932
0.999932
0.999953
0.999995
0.999989
0.999971
1
1.00002
0.999988
0.999979
1.00002
1.00001
0.999978
0.999997
1.00002
1
0.999997
1.00004
1.00005
1.00005
1.00008
1.00013
1.00014
1.00016
1.00021
1.00022
1.00023
1.00025
1.00028
1.00028
1.00026
1.0003
1.00029
1.00028
1.00024
0.999428
0.999463
0.999399
0.999357
0.999417
0.999412
0.999397
0.999446
0.99951
0.999501
0.999544
0.999648
0.999675
0.999691
0.99977
0.99987
0.999859
0.999874
0.999976
0.999987
0.999934
0.99998
1.00005
0.999977
0.999956
1.00003
1.00002
0.99995
1.00001
1.00006
1.00001
1.00001
1.0001
1.00012
1.0001
1.00018
1.00025
1.00026
1.00027
1.00035
1.00039
1.00037
1.00042
1.00046
1.00044
1.00043
1.00048
1.00045
1.0004
1.00043
0.999159
0.999113
0.999089
0.999061
0.999065
0.999076
0.999092
0.999139
0.999156
0.999224
0.999308
0.999318
0.999416
0.99953
0.999574
0.99962
0.999759
0.999836
0.999819
0.999898
0.999989
0.999959
0.999929
1.00001
1.00003
0.999959
0.999981
1.00006
1.00003
0.999995
1.00008
1.00015
1.00012
1.00019
1.00031
1.00033
1.00036
1.00045
1.00053
1.00051
1.00057
1.00063
1.00062
1.00066
1.00067
1.00068
1.00067
1.00066
1.00065
1.00061
0.998845
0.99869
0.998707
0.998743
0.9987
0.998698
0.998764
0.998774
0.998778
0.998879
0.998948
0.998992
0.999066
0.999213
0.999296
0.999364
0.999527
0.99965
0.999699
0.999778
0.9999
0.999924
0.999908
0.99999
1.00002
0.999971
0.999993
1.00007
1.00006
1.00007
1.00017
1.00024
1.00027
1.00036
1.00049
1.00053
1.00058
1.00069
1.00073
1.00076
1.00079
1.00086
1.00086
1.00086
1.00091
1.00092
1.00087
1.00091
1.00093
1.00082
0.998401
0.99839
0.99841
0.998409
0.998389
0.998437
0.998428
0.998456
0.998523
0.9985
0.998565
0.998677
0.998729
0.998777
0.998931
0.99911
0.999148
0.999305
0.999528
0.999624
0.999673
0.999815
0.999947
0.9999
0.999936
1.00004
1.00007
1.00002
1.00013
1.00026
1.00028
1.00035
1.00053
1.00065
1.00064
1.00078
1.00088
1.00089
1.00092
1.00099
1.00104
1.001
1.00105
1.00109
1.00106
1.0011
1.0011
1.0011
1.0011
1.00112
0.998061
0.998184
0.99819
0.998155
0.998251
0.998299
0.998231
0.998269
0.998331
0.998329
0.998316
0.998371
0.998451
0.998446
0.998566
0.998677
0.998815
0.998942
0.999143
0.999327
0.999457
0.999638
0.999765
0.999864
0.999914
1.00004
1.00008
1.00017
1.00026
1.00041
1.0005
1.00064
1.00078
1.00085
1.00095
1.001
1.00108
1.00106
1.00111
1.00115
1.00113
1.00114
1.00117
1.00123
1.00117
1.0012
1.00128
1.00126
1.00125
1.00134
0.997948
0.99801
0.998078
0.998148
0.998201
0.998197
0.998264
0.998293
0.998251
0.998289
0.998304
0.998252
0.998246
0.998357
0.998301
0.998323
0.998479
0.998629
0.998707
0.998914
0.999218
0.999354
0.999493
0.999746
0.999941
0.999971
1.00015
1.00037
1.00048
1.00055
1.0008
1.00094
1.00097
1.00106
1.00117
1.00117
1.0011
1.00121
1.0012
1.00117
1.00119
1.00124
1.00121
1.00123
1.00129
1.00131
1.00131
1.00137
1.00142
1.00143
0.997919
0.997936
0.998087
0.998164
0.998165
0.998174
0.998281
0.998341
0.998273
0.99831
0.99838
0.998326
0.998298
0.998256
0.99827
0.998239
0.998217
0.998309
0.998399
0.998556
0.99876
0.999008
0.99928
0.999512
0.999805
1.00003
1.00029
1.00049
1.0007
1.00089
1.00102
1.00113
1.00117
1.00124
1.0012
1.00118
1.00123
1.0012
1.0012
1.00119
1.00126
1.00131
1.00126
1.00132
1.00137
1.00141
1.00138
1.00143
1.00153
1.00152
0.997927
0.998017
0.998078
0.997994
0.998085
0.998187
0.998135
0.99818
0.998309
0.998343
0.998281
0.99841
0.998425
0.998305
0.998329
0.998323
0.998205
0.998104
0.998253
0.99829
0.998336
0.998662
0.998994
0.999303
0.999574
1.00013
1.00038
1.00064
1.00091
1.00117
1.0012
1.00119
1.00134
1.00125
1.00118
1.00121
1.00127
1.00121
1.00123
1.00138
1.00133
1.00135
1.00146
1.00151
1.00143
1.00151
1.00158
1.00153
1.00152
1.00158
0.998058
0.998066
0.998034
0.997978
0.997993
0.998084
0.998
0.998053
0.998134
0.998216
0.998207
0.998293
0.998402
0.998445
0.998374
0.99841
0.998346
0.998284
0.998141
0.998157
0.998282
0.998364
0.998679
0.99907
0.999593
0.999932
1.00044
1.0008
1.00108
1.00114
1.00127
1.00132
1.00121
1.00122
1.00121
1.00128
1.00124
1.00131
1.00142
1.00146
1.00147
1.00153
1.00156
1.00161
1.00155
1.00162
1.0016
1.00162
1.00156
1.00156
0.998236
0.998021
0.998056
0.998187
0.998022
0.997973
0.998052
0.998077
0.997919
0.998002
0.998161
0.99811
0.998167
0.998335
0.99845
0.998336
0.998481
0.998459
0.998276
0.998222
0.998295
0.99837
0.998502
0.998972
0.999457
0.99987
1.00033
1.00083
1.00099
1.00112
1.00123
1.00127
1.00117
1.00119
1.00137
1.00129
1.00139
1.00154
1.00158
1.00152
1.00162
1.00171
1.00157
1.00159
1.00168
1.00166
1.0015
1.00164
1.00168
1.00154
0.998253
0.998191
0.998216
0.998264
0.998164
0.998173
0.998113
0.998115
0.998036
0.997988
0.998014
0.998019
0.99801
0.998119
0.998226
0.998387
0.998381
0.998454
0.998575
0.998506
0.998405
0.998545
0.998744
0.998945
0.999269
0.999849
1.00024
1.00048
1.00081
1.00103
1.00107
1.00106
1.00127
1.00137
1.00136
1.00152
1.00159
1.00165
1.00163
1.00166
1.00167
1.00163
1.00162
1.00164
1.00158
1.00162
1.00158
1.0016
1.00161
1.00162
0.998214
0.99838
0.998276
0.998163
0.99822
0.998369
0.998148
0.998145
0.998235
0.99817
0.997956
0.998005
0.998098
0.997936
0.997978
0.998229
0.998319
0.998408
0.998629
0.998782
0.998794
0.998875
0.99909
0.999112
0.999358
0.999647
0.999973
1.00014
1.00047
1.00074
1.00086
1.0011
1.00133
1.00144
1.0015
1.00169
1.00174
1.00159
1.00167
1.00175
1.0016
1.00156
1.00165
1.00169
1.00152
1.00164
1.0017
1.00163
1.00152
1.00169
0.998225
0.998151
0.998078
0.998152
0.998057
0.998104
0.998157
0.998178
0.998139
0.998199
0.998192
0.998076
0.998024
0.998027
0.99798
0.997933
0.998172
0.998366
0.998548
0.998846
0.999236
0.999342
0.999295
0.99957
0.999539
0.99949
0.99952
0.99995
1.00009
1.00032
1.00082
1.00116
1.00135
1.00151
1.00176
1.0017
1.00164
1.00171
1.00168
1.00158
1.00163
1.00171
1.00165
1.00166
1.00173
1.00176
1.00165
1.00177
1.00172
1.00166
0.998119
0.997911
0.99789
0.998119
0.997916
0.997908
0.998056
0.998172
0.998014
0.998121
0.998285
0.998211
0.998058
0.998155
0.998135
0.997992
0.998004
0.998386
0.998558
0.998941
0.999372
0.999685
0.999841
0.999753
0.99972
0.999428
0.999462
0.99948
0.999759
1.00017
1.00065
1.00107
1.00127
1.00163
1.00167
1.00159
1.0016
1.00171
1.00163
1.00156
1.0017
1.00177
1.00164
1.00171
1.00181
1.00181
1.00164
1.00184
1.00184
1.00172
0.9978
0.998024
0.997922
0.997905
0.997942
0.9981
0.997872
0.997938
0.998091
0.998048
0.998003
0.9982
0.998273
0.998124
0.998164
0.998244
0.998256
0.998231
0.998729
0.999083
0.999375
0.999846
1.00016
1
0.999683
0.999675
0.99939
0.999248
0.999558
1.0001
1.00043
1.00079
1.00135
1.00141
1.00145
1.0016
1.0017
1.00156
1.00162
1.00182
1.00175
1.00166
1.00182
1.00187
1.00165
1.00179
1.00185
1.0018
1.0017
1.00193
0.997701
0.998008
0.997897
0.997845
0.997914
0.998077
0.997816
0.997818
0.99798
0.99796
0.997884
0.997964
0.99822
0.99818
0.998167
0.998417
0.998495
0.998559
0.998786
0.999226
0.999568
0.999833
1.00003
1.00011
0.999949
0.999648
0.999453
0.999443
0.99961
0.999804
1.0002
1.00069
1.00099
1.00119
1.00133
1.00161
1.00162
1.00161
1.00181
1.00185
1.00178
1.00178
1.0019
1.00191
1.00173
1.00187
1.0019
1.00187
1.00176
1.00195
0.997882
0.997772
0.997713
0.998069
0.997816
0.997781
0.997956
0.998045
0.997783
0.997874
0.998068
0.997923
0.997896
0.998228
0.998402
0.998377
0.998713
0.999121
0.99915
0.999309
0.999728
0.999855
0.999819
0.999989
1.00006
0.999741
0.999672
0.999745
0.999588
0.999639
1.00005
1.00034
1.00046
1.00093
1.00138
1.00138
1.00153
1.00185
1.00183
1.00167
1.00184
1.00196
1.00171
1.00178
1.00197
1.00194
1.00169
1.00201
1.00197
1.00182
0.997795
0.997808
0.997749
0.998016
0.997806
0.997887
0.997924
0.998075
0.997954
0.997896
0.998009
0.998012
0.997922
0.998026
0.998364
0.998608
0.99884
0.99926
0.999627
0.999642
0.999677
0.999747
0.999782
0.999797
0.999797
1.00007
1.00002
0.999855
0.99976
0.999752
0.999788
0.99985
1.00033
1.00081
1.00108
1.00137
1.00171
1.0018
1.00176
1.00179
1.00189
1.00183
1.00177
1.00188
1.00186
1.00193
1.00179
1.00196
1.00191
1.00195
0.997705
0.998169
0.997935
0.997728
0.997888
0.998192
0.997798
0.997795
0.998154
0.998044
0.997779
0.997984
0.998241
0.998009
0.998216
0.998823
0.999138
0.999389
0.999801
1.0001
0.999741
0.999601
0.999738
0.999579
0.9998
1.00009
1.00028
1.00001
0.999986
0.999837
0.999433
0.999696
1.00016
1.00048
1.00081
1.00144
1.00171
1.00154
1.00179
1.00203
1.00182
1.00172
1.00204
1.00206
1.0017
1.00192
1.00209
1.00189
1.00166
1.00205
0.997916
0.997978
0.997733
0.997936
0.997766
0.997841
0.997782
0.997786
0.997723
0.997888
0.997956
0.997911
0.998077
0.998333
0.99846
0.998744
0.999364
0.99972
0.999898
0.999962
1.00004
0.999696
0.999412
0.999677
0.999834
1.00006
1.00016
1.00041
1.00011
0.999642
0.999648
0.999673
0.99982
1.00018
1.00086
1.00121
1.00137
1.00169
1.00189
1.00183
1.00193
1.00211
1.00201
1.00202
1.00206
1.00209
1.00191
1.00212
1.00196
1.00193
0.99809
0.997571
0.997585
0.998206
0.997663
0.99748
0.997843
0.998036
0.997579
0.997681
0.9982
0.99802
0.997935
0.998449
0.998942
0.99891
0.999316
0.999959
0.999944
0.999872
0.999908
0.999832
0.99953
0.999562
0.999912
0.99994
1.00029
1.0004
1.0001
0.999907
0.99983
0.999709
0.999601
1.00021
1.00069
1.00077
1.00128
1.00181
1.0018
1.00164
1.00208
1.00219
1.00181
1.00194
1.00229
1.00215
1.00174
1.00222
1.00231
1.00188
0.997632
0.997959
0.997821
0.997758
0.997743
0.998022
0.997743
0.99782
0.998014
0.997804
0.997771
0.998098
0.998293
0.998374
0.998875
0.999488
0.999588
0.999673
1.00004
0.999941
0.999693
0.999703
0.999871
0.999778
0.999703
1.00012
1.00016
1.00008
1.00024
1.00025
0.99991
0.999611
0.99992
1.00003
1.00012
1.00077
1.00135
1.00146
1.00168
1.00208
1.00204
1.00184
1.00208
1.00215
1.00183
1.00208
1.00219
1.00205
1.00194
1.00233
0.997415
0.998079
0.997723
0.9974
0.997653
0.998156
0.99758
0.99748
0.997904
0.997907
0.997531
0.997779
0.998469
0.998555
0.998847
0.999579
0.999923
0.999732
0.999685
0.999845
0.999679
0.99967
0.999913
0.999953
0.999917
0.999953
0.999999
1.00006
1.00034
1.00032
1.00005
1.00008
0.999965
0.999745
1.00003
1.00074
1.00112
1.00125
1.00193
1.00222
1.00197
1.00201
1.00237
1.0023
1.00187
1.00222
1.00244
1.00221
1.00192
1.00242
0.997898
0.997435
0.99742
0.998071
0.997604
0.997391
0.997868
0.99791
0.997455
0.997759
0.998298
0.998014
0.998247
0.99912
0.999479
0.999444
0.999862
1.00014
0.999587
0.999413
0.999785
0.999834
0.999805
1.00007
1.00017
0.99981
0.999824
1.00018
1.00023
1.00022
1.00052
1.00036
0.999701
0.999791
1.0002
1.0002
1.00053
1.00146
1.00176
1.00151
1.00205
1.00241
1.00198
1.00201
1.00255
1.00232
1.00185
1.00245
1.00252
1.00199
0.997705
0.997358
0.99746
0.997982
0.997506
0.99734
0.997699
0.997938
0.997535
0.997662
0.998254
0.998377
0.998377
0.998993
0.999716
0.99968
0.999641
0.999779
0.999685
0.999372
0.999483
0.999817
0.999991
1.00011
1.00003
0.999954
0.99988
0.999992
1.00017
1.00053
1.00068
1.00032
1.00008
1.00012
1.00002
0.999993
1.00074
1.00137
1.00146
1.00167
1.0022
1.00228
1.00203
1.00223
1.00249
1.00242
1.00211
1.0024
1.0025
1.0023
0.997049
0.998045
0.997755
0.996978
0.997536
0.998118
0.997271
0.997215
0.998138
0.997974
0.997539
0.998311
0.999179
0.998997
0.99934
1.00006
0.999866
0.999343
0.999485
0.999763
0.999443
0.999709
1.00019
1.00001
0.999931
1.00006
1.00004
0.999823
1.00022
1.00064
1.00037
1.00048
1.00058
1.00003
0.999676
1.00034
1.00078
1.00065
1.00147
1.0023
1.00195
1.00175
1.00266
1.00265
1.00185
1.00236
1.00298
1.00223
1.00192
1.00284
0.997433
0.997794
0.997447
0.997423
0.997526
0.997805
0.99756
0.997458
0.997747
0.997985
0.997929
0.99834
0.999182
0.99968
0.999605
0.999832
1.00001
0.999581
0.999367
0.999517
0.999847
0.999755
0.999809
1.00005
1.00002
1.00003
0.999953
1.00018
1.00032
1.00023
1.00054
1.00072
1.00046
0.99995
1.00003
1.00021
1.00013
1.00066
1.00152
1.00184
1.00192
1.00225
1.00242
1.00233
1.00231
1.00243
1.00245
1.00258
1.00233
1.0024
0.998208
0.996749
0.99722
0.998399
0.997503
0.996869
0.997848
0.998122
0.997143
0.997488
0.998767
0.998573
0.998688
0.999745
1.00018
0.999448
0.999425
0.999767
0.999342
0.999329
0.999728
0.999894
0.999652
0.999802
1.00012
0.999916
1.00015
1.00039
1.0002
1.0003
1.00073
1.00082
1.00035
1.00058
1.00058
0.999808
1.00009
1.00115
1.00133
1.0011
1.00231
1.00281
1.00192
1.00214
1.00311
1.00254
1.00171
1.00275
1.00327
1.00195
0.997161
0.997653
0.997651
0.997438
0.997472
0.997652
0.997363
0.997561
0.997866
0.997853
0.998219
0.999018
0.999409
0.999522
0.999781
0.999961
0.999418
0.999321
0.999701
0.99971
0.999664
0.999762
0.999961
0.99978
0.999724
1.00021
1.00034
1.00015
1.00026
1.0004
1.00044
1.0004
1.00079
1.00077
1.00014
1.00019
1.00048
1.00049
1.00082
1.00174
1.00209
1.002
1.00251
1.00271
1.0023
1.00252
1.00278
1.00236
1.00233
1.00307
0.996811
0.998404
0.997711
0.996491
0.997441
0.998368
0.997061
0.996904
0.998287
0.99844
0.997822
0.998871
1.00011
0.999447
0.999349
0.999888
0.999798
0.999118
0.999521
1.00006
0.999647
0.999583
0.999798
0.999736
0.99983
1.00019
1.00032
1.00026
1.00046
1.00049
1.00009
1.00059
1.00109
1.0005
1.00026
1.00071
1.00061
0.999903
1.00102
1.00218
1.00164
1.00171
1.00305
1.00297
1.00183
1.00259
1.0035
1.00247
1.00185
1.00318
0.998202
0.997001
0.997092
0.998078
0.997443
0.996826
0.997818
0.997873
0.997336
0.997965
0.999079
0.999041
0.999239
1.00001
0.99983
0.999338
0.99938
0.999729
0.999511
0.999514
0.99988
0.999686
0.999468
0.999751
1.00003
1.00004
1.00021
1.00059
1.00051
1.00021
1.00056
1.00075
1.00054
1.0008
1.00095
1.0004
1
1.00078
1.00111
1.00091
1.00199
1.00278
1.00216
1.00214
1.00336
1.00275
1.00199
1.0031
1.00334
1.00192
0.997824
0.996293
0.996934
0.998376
0.99716
0.996438
0.997723
0.998277
0.99715
0.997644
0.999268
0.999502
0.99912
0.999859
1.00023
0.999296
0.999229
0.999759
0.999848
0.999529
0.999625
0.999796
0.999622
0.999713
0.999949
1.00007
1.00033
1.0005
1.00031
1.00046
1.00066
1.00046
1.00049
1.00107
1.00108
1.00009
1.00029
1.00107
1.00072
1.0008
1.00234
1.0029
1.00191
1.00235
1.00352
1.003
1.00209
1.00312
1.00377
1.00264
0.996167
0.99841
0.997947
0.995961
0.997411
0.998586
0.996964
0.996781
0.998694
0.998514
0.998101
0.999307
1.00038
0.999509
0.999264
0.999908
0.999472
0.999207
0.9997
0.999957
0.999412
0.999439
0.999935
0.999832
0.999789
1.00025
1.00031
1.00011
1.00054
1.00074
1.00031
1.00046
1.00108
1.00096
1.00041
1.001
1.00097
0.999961
1.00073
1.00212
1.00173
1.00132
1.00327
1.00333
1.0016
1.00272
1.00438
1.00233
1.0018
1.00415
0.996866
0.998087
0.997168
0.996433
0.997251
0.998006
0.997104
0.99693
0.998172
0.998748
0.998383
0.999173
1.00006
0.999835
0.999393
0.999601
0.999726
0.999404
0.999559
0.999712
0.999586
0.999547
0.999664
0.999803
1
1.0002
1.00024
1.00038
1.00062
1.00058
1.0004
1.00066
1.00093
1.00065
1.00079
1.0011
1.00065
1.00025
1.00107
1.00187
1.00152
1.002
1.00316
1.00303
1.00249
1.00298
1.00357
1.00331
1.00253
1.00313
0.998915
0.995218
0.996421
0.999183
0.997072
0.995472
0.998098
0.998884
0.99686
0.997864
1.00022
0.999458
0.998889
1
1.00032
0.999157
0.999257
1.00014
0.999622
0.999191
0.999628
0.999803
0.999531
0.999769
1.00016
1.00005
1.00026
1.00055
1.00034
1.00037
1.00093
1.00076
1.00018
1.001
1.00147
1.0004
1.00035
1.00155
1.00117
1.00012
1.00221
1.00352
1.00152
1.00199
1.00478
1.00331
1.00115
1.00387
1.00519
1.00153
0.996483
0.996875
0.997304
0.997257
0.997056
0.996859
0.997354
0.997709
0.998117
0.998373
0.9991
0.999671
0.999556
0.999679
0.999646
0.999603
0.999542
0.999529
0.99952
0.999317
0.999396
0.999635
0.999776
0.999844
0.999988
1.00022
1.00039
1.00037
1.00038
1.00065
1.00085
1.00068
1.00071
1.00094
1.00098
1.00091
1.00097
1.00106
1.00083
1.00134
1.00209
1.00222
1.00268
1.00304
1.00326
1.00329
1.00359
1.00298
1.00332
1.00446
0.995238
0.999789
0.997975
0.99428
0.997183
0.999528
0.996228
0.996036
0.999296
0.99941
0.997901
0.999391
1.00092
0.999451
0.998918
1.00006
1.00001
0.999128
0.999285
0.999768
0.999443
0.999511
0.999965
0.999929
0.999963
1.00035
1.00034
1.00013
1.00052
1.00065
1.00029
1.00077
1.00129
1.0006
1.00033
1.00163
1.00152
0.999858
1.00101
1.00282
1.00138
1.00092
1.00412
1.00429
1.00092
1.00311
1.00618
1.00265
1.00102
1.00525
0.998539
0.996053
0.995937
0.998039
0.997116
0.996124
0.997769
0.997842
0.997597
0.998389
0.999864
0.999878
0.999512
0.999944
0.999796
0.999488
0.999506
0.999642
0.999317
0.999074
0.999471
0.999711
0.999673
0.999941
1.00024
1.00021
1.00025
1.00051
1.00048
1.00048
1.00085
1.00092
1.00071
1.00083
1.0011
1.00099
1.00083
1.00134
1.0012
1.00097
1.00213
1.00302
1.00261
1.00251
1.00449
1.00358
1.00222
1.00484
1.00512
1.0018
0.999006
0.993544
0.996147
1.00017
0.996505
0.994581
0.998152
0.999301
0.996537
0.997843
1.00063
0.999985
0.998976
0.999959
1.00031
0.999161
0.999178
0.999751
0.999158
0.998851
0.999511
0.9998
0.999646
1.00007
1.00039
1.00013
1.00027
1.0006
1.00027
1.00034
1.00112
1.00103
1.00037
1.00109
1.0016
1.0005
1.00067
1.0021
1.00137
1.00016
1.00262
1.00426
1.0014
1.00199
1.00586
1.00422
1.0007
1.0046
1.00705
1.0024
0.993322
0.999455
0.998198
0.993769
0.99693
0.999063
0.9965
0.995927
0.999151
0.999446
0.998568
0.999822
1.00091
0.999931
0.999137
0.999931
0.999852
0.998988
0.999053
0.999486
0.999492
0.999524
0.999973
1.00023
1.00026
1.00032
1.00022
1.00019
1.00049
1.0006
1.00052
1.0009
1.00125
1.00066
1.00046
1.00149
1.00141
1.00045
1.00123
1.00271
1.00172
1.0013
1.00447
1.00437
1.00155
1.00348
1.00738
1.00266
1.0013
1.00848
0.995928
1.00035
0.996796
0.993354
0.997214
0.998999
0.996041
0.996269
0.999151
0.999273
0.998473
0.999871
1.00091
0.99981
0.999326
0.999832
0.999369
0.998578
0.998804
0.999231
0.999236
0.999563
1.00011
1.00024
1.0003
1.00046
1.00029
1.00016
1.00062
1.00081
1.00053
1.00092
1.00151
1.0009
1.00042
1.00145
1.00162
1.00038
1.00126
1.00302
1.00203
1.00133
1.00428
1.00486
1.00169
1.00326
1.00737
1.00412
1.00171
1.00517
1.00076
0.989493
0.993962
1.0016
0.996707
0.993103
0.998014
0.999683
0.996777
0.997792
1.00102
1.00075
0.999348
1.00041
1.00059
0.999163
0.998791
0.99947
0.999128
0.998726
0.999472
1.00001
0.999955
1.00028
1.00052
1.00019
1.00018
1.00043
1.00021
1.0004
1.00119
1.00099
1.00043
1.00118
1.0015
1.00035
1.00059
1.00242
1.00149
1.00032
1.00315
1.00471
1.00123
1.0019
1.00754
1.00462
0.999172
1.00714
1.01133
0.9989
0.994499
0.99387
0.996336
0.998035
0.995753
0.995955
0.997911
0.997656
0.997493
0.998991
1.00021
1.00005
1.00018
1.00058
0.99978
0.99899
0.998902
0.998899
0.998477
0.998777
0.999499
0.999893
1.00012
1.00062
1.00065
1.00021
1.00015
1.00047
1.00037
1.00045
1.00105
1.00126
1.00073
1.00087
1.00128
1.00092
1.00056
1.00168
1.00209
1.00144
1.00228
1.00403
1.00322
1.0024
1.00468
1.00568
1.00251
1.00463
1.00812
1.00875
0.992871
1.00722
0.997736
0.990208
0.997407
1.00047
0.995509
0.995389
0.999795
0.999768
0.998107
1.0004
1.00206
1.00041
0.999384
0.999969
0.999206
0.997958
0.998394
0.999145
0.999155
0.999713
1.00058
1.00061
1.00044
1.00053
1.0001
0.999815
1.00051
1.0008
1.00034
1.00107
1.00194
1.00071
1
1.00175
1.00156
0.99959
1.00141
1.00448
1.00158
1.00053
1.00605
1.00594
0.998719
1.00415
1.01228
1.00121
0.996022
1.02316

VECTORS velocity double
2.21888e-006 4.36608e-006 0
-3.86496e-006 5.77155e-006 0
-4.2433e-006 4.63223e-006 0
-4.04108e-006 3.57877e-006 0
-1.9355e-007 3.38351e-006 0
-4.58965e-006 9.07123e-006 0
-8.99351e-006 -5.61408e-007 0
-6.32787e-006 2.80364e-006 0
-2.55332e-006 9.10342e-006 0
-1.27277e-005 2.92822e-006 0
-8.62935e-006 -4.0235e-006 0
-6.70157e-007 5.00614e-006 0
-6.35199e-006 4.59943e-006 0
-8.04461e-006 -7.49778e-007 0
-1.2857e-006 -3.80407e-006 0
-5.96679e-006 1.70705e-006 0
-1.03081e-005 1.65833e-006 0
-7.52716e-006 -4.72934e-007 0
-7.93621e-006 -2.11978e-006 0
-9.67817e-006 3.79073e-006 0
-9.12504e-006 -1.43916e-007 0
-1.05053e-005 -4.22856e-007 0
-8.40655e-006 2.88471e-006 0
-5.97682e-006 9.17799e-007 0
-8.22503e-006 -3.44313e-006 0
-8.05388e-006 3.16799e-006 0
-5.91229e-006 -3.34374e-007 0
-8.48936e-006 -2.71898e-006 0
-1.03784e-005 1.52701e-007 0
-8.86233e-006 6.99779e-007 0
-9.32935e-006 -3.21865e-006 0
-7.77256e-006 1.84333e-006 0
-7.49993e-006 9.53392e-007 0
-9.52794e-006 -8.18897e-007 0
-4.9439e-006 -1.39776e-006 0
-9.94814e-007 3.83127e-006 0
-6.98514e-006 1.02268e-006 0
-4.75395e-006 -4.37407e-006 0
-7.4446e-008 -4.11623e-006 0
-7.88762e-006 3.84359e-006 0
-1.10471e-005 -3.25512e-006 0
-1.96895e-006 -8.60473e-006 0
-5.90191e-006 -2.13214e-006 0
-8.34688e-006 1.86782e-007 0
-3.51149e-006 -8.63701e-006 0
2.41114e-008 -2.94385e-006 0
-2.93131e-006 -2.97741e-006 0
-3.78995e-006 -4.36094e-006 0
-3.0208e-006 -5.16799e-006 0
2.29992e-006 -4.01505e-006 0
-1.10084e-006 1.00311e-005 0
-1.76915e-006 2.01212e-005 0
3.74233e-006 1.64997e-005 0
-6.77629e-006 1.14968e-005 0
-4.50891e-006 1.39108e-005 0
-3.03626e-006 2.44939e-005 0
-7.29979e-006 9.43465e-006 0
-1.13378e-005 5.90665e-006 0
-1.8509e-006 1.54405e-005 0
-1.6383e-006 1.74145e-005 0
-1.10083e-005 -2.74736e-006 0
-7.78491e-006 5.2485e-006 0
1.00905e-006 1.04091e-005 0
-5.50439e-006 2.39283e-006 0
-5.06982e-006 -2.88331e-006 0
-9.71135e-009 2.52693e-006 0
-3.32569e-006 4.34817e-007 0
-3.70758e-006 -1.275e-006 0
5.85438e-007 -2.20465e-006 0
-1.4104e-006 3.89611e-006 0
-3.88432e-006 -3.6152e-006 0
-3.66959e-006 -2.02071e-006 0
-3.63181e-006 4.9337e-006 0
-3.30548e-006 1.64708e-007 0
-4.78203e-006 -6.92641e-006 0
-5.88114e-006 6.67663e-006 0
-3.84185e-006 6.09767e-007 0
-2.43619e-006 -4.98905e-006 0
-3.83628e-006 1.86621e-006 0
-4.897e-006 4.33498e-006 0
-8.3526e-007 -3.68674e-006 0
7.7156e-007 2.36147e-006 0
-4.63559e-006 2.505e-006 0
-3.63412e-006 -2.37226e-007 0
6.78964e-008 -1.73594e-006 0
-5.47121e-006 4.09939e-006 0
-6.13102e-006 -1.81572e-006 0
-1.57426e-007 -9.66437e-006 0
-8.36124e-006 -3.23898e-006 0
-1.1135e-005 2.82445e-006 0
-2.68773e-006 -1.65993e-005 0
-3.79152e-006 -1.28757e-005 0
-1.11724e-005 -4.43824e-006 0
-7.34838e-006 -9.07079e-006 0
-4.0962e-006 -2.11255e-005 0
-4.86363e-006 -1.23243e-005 0
-6.285e-006 -9.6711e-006 0
3.41963e-006 -1.46538e-005 0
-1.05663e-006 -1.73696e-005 0
-1.2206e-006 -8.05048e-006 0
4.06293e-006 2.99341e-005 0
-2.77312e-006 3.46749e-005 0
4.05591e-006 3.25378e-005 0
7.30769e-007 4.43422e-005 0
-8.50647e-006 2.57973e-005 0
-5.20805e-006 3.04849e-005 0
9.81153e-006 4.07941e-005 0
-7.56578e-006 2.64425e-005 0
-1.27803e-005 1.39562e-005 0
4.50376e-006 3.10725e-005 0
6.78561e-006 1.89489e-005 0
-6.72329e-006 6.98303e-006 0
7.70167e-007 1.16536e-005 0
1.12326e-005 1.08298e-005 0
1.92335e-006 3.30009e-007 0
-4.82547e-007 4.02852e-006 0
1.04432e-005 2.37468e-006 0
8.44898e-006 2.11449e-006 0
2.23838e-006 1.20195e-007 0
9.96902e-006 -1.78339e-006 0
1.30109e-005 2.31243e-006 0
5.36047e-006 1.70484e-006 0
8.97761e-006 -4.82781e-006 0
1.47182e-005 1.59247e-006 0
7.73041e-006 5.15147e-006 0
7.89675e-006 -3.70512e-006 0
1.50343e-005 -2.08898e-006 0
9.24752e-006 5.22753e-006 0
6.04081e-006 4.2163e-007 0
1.37478e-005 -2.27589e-006 0
1.05079e-005 1.20832e-006 0
2.7073e-006 1.71417e-006 0
9.14828e-006 -1.07638e-006 0
1.05983e-005 -2.80815e-006 0