# vtk DataFile Version 4.0
SiwiRVisFile
ASCII
DATASET STRUCTURED_POINTS
DIMENSIONS 5 5 1
ORIGIN 0 0 0
SPACING 1 1 1
POINT_DATA 25

SCALARS flags double 1
LOOKUP_TABLE default
1
1
1
1
1
1
1
1
1
1
1
1
1
1
1
1
1
1
1
1
1
1
1
1
1

SCALARS density double 1
LOOKUP_TABLE default
0.978522
1.01387
0.999663
0.985569
1.02187
0.997732
1.00349
1.00107
0.997446
1.00047
1.00732
0.961457
1.00013
1.03766
0.990348
0.998736
0.982081
0.998404
1.01962
1.00158
0.966348
1.01935
0.998563
0.981168
1.03753

VECTORS velocity double
0.000459311 0.00881648 0
-0.0075354 -0.00277992 0
-0.00169837 -0.000132014 0
-0.00716955 0.00312691 0
0.00123541 -0.00849335 0
0.00283446 0.0115379 0
0.0033844 0.00307127 0
-0.00349275 9.73293e-005 0
0.00282338 -0.00308633 0
0.00307071 -0.0105992 0
-0.00105467 -0.000696245 0
-0.00693973 0.0132878 0
-0.0240671 9.64244e-006 0
-0.00825003 -0.0139962 0
-0.00157731 0.00132826 0
-0.0111981 0.0097212 0
-0.0241754 0.0119073 0
-0.005729 0.000224341 0
-0.0250118 -0.0111796 0
-0.0108839 -0.00937571 0
0.0174322 0.0147624 0
0.0420541 0.00313166 0
0.0280316 0.000393896 0
0.0394167 -0.00275173 0
0.0152342 -0.0136891 0
