# vtk DataFile Version 4.0
SiwiRVisFile
ASCII
DATASET STRUCTURED_POINTS
DIMENSIONS 50 50 1
ORIGIN 0 0 0
SPACING 1 1 1
POINT_DATA 2500

SCALARS flags double 1
LOOKUP_TABLE default
1
1
1
1
1
1
1
1
1
1
1
1
1
1
1
1
1
1
1
1
1
1
1
1
1
1
1
1
1
1
1
1
1
1
1
1
1
1
1
1
1
1
1
1
1
1
1
1
1
1
1
1
1
1
1
1
1
1
1
1
1
1
1
1
1
1
1
1
1
1
1
1
1
1
1
1
1
1
1
1
1
1
1
1
1
1
1
1
1
1
1
1
1
1
1
1
1
1
1
1
1
1
1
1
1
1
1
1
1
1
1
1
1
1
1
1
1
1
1
1
1
1
1
1
1
1
1
1
1
1
1
1
1
1
1
1
1
1
1
1
1
1
1
1
1
1
1
1
1
1
1
1
1
1
1
1
1
1
1
1
1
1
1
1
1
1
1
1
1
1
1
1
1
1
1
1
1
1
1
1
1
1
1
1
1
1
1
1
1
1
1
1
1
1
1
1
1
1
1
1
1
1
1
1
1
1
1
1
1
1
1
1
1
1
1
1
1
1
1
1
1
1
1
1
1
1
1
1
1
1
1
1
1
1
1
1
1
1
1
1
1
1
1
1
1
1
1
1
1
1
1
1
1
1
1
1
1
1
1
1
1
1
1
1
1
1
1
1
1
1
1
1
1
1
1
1
1
1
1
1
1
1
1
1
1
1
1
1
1
1
1
1
1
1
1
1
1
1
1
1
1
1
1
1
1
1
1
1
1
1
1
1
1
1
1
1
1
1
1
1
1
1
1
1
1
1
1
1
1
1
1
1
1
1
1
1
1
1
1
1
1
1
1
1
1
1
1
1
1
1
1
1
1
1
1
1
1
1
1
1
1
1
1
1
1
1
1
1
1
1
1
1
1
1
1
1
1
1
1
1
1
1
1
1
1
1
1
1
1
1
1
1
1
1
1
1
1
1
1
1
1
1
1
1
1
1
1
1
1
1
1
1
1
1
1
1
1
1
1
1
1
1
1
1
1
1
1
1
1
1
1
1
1
1
1
1
1
1
1
1
1
1
1
1
1
1
1
1
1
1
1
1
1
1
1
1
1
1
1
1
1
1
1
1
1
1
1
1
1
1
1
1
1
1
1
1
1
1
1
1
1
1
1
1
1
1
1
1
1
1
1
1
1
1
1
1
1
1
1
1
1
1
1
1
1
1
1
1
1
1
1
1
1
1
1
1
1
1
1
1
1
1
1
1
1
1
1
1
1
1
1
1
1
1
1
1
1
1
1
1
1
1
1
1
1
1
1
1
1
1
1
1
1
1
1
1
1
1
1
1
1
1
1
1
1
1
1
1
1
1
1
1
1
1
1
1
1
1
1
1
1
1
1
1
1
1
1
1
1
1
1
1
1
1
1
1
1
1
1
1
1
1
1
1
1
1
1
1
1
1
1
1
1
1
1
1
1
1
1
1
1
1
1
1
1
1
1
1
1
1
1
1
1
1
1
1
1
1
1
1
1
1
1
1
1
1
1
1
1
1
1
1
1
1
1
1
1
1
1
1
1
1
1
1
1
1
1
1
1
1
1
1
1
1
1
1
1
1
1
1
1
1
1
1
1
1
1
1
1
1
1
1
1
1
1
1
1
1
1
1
1
1
1
1
1
1
1
1
1
1
1
1
1
1
1
1
1
1
1
1
1
1
1
1
1
1
1
1
1
1
1
1
1
1
1
1
1
1
1
1
1
1
1
1
1
1
1
1
1
1
1
1
1
1
1
1
1
1
1
1
1
1
1
1
1
1
1
1
1
1
1
1
1
1
1
1
1
1
1
1
1
1
1
1
1
1
1
1
1
1
1
1
1
1
1
1
1
1
1
1
1
1
1
1
1
1
1
1
1
1
1
1
1
1
1
1
1
1
1
1
1
1
1
1
1
1
1
1
1
1
1
1
1
1
1
1
1
1
1
1
1
1
1
1
1
1
1
1
1
1
1
1
1
1
1
1
1
1
1
1
1
1
1
1
1
1
1
1
1
1
1
1
1
1
1
1
1
1
1
1
1
1
1
1
1
1
1
1
1
1
1
1
1
1
1
1
1
1
1
1
1
1
1
1
1
1
1
1
1
1
1
1
1
1
1
1
1
1
1
1
1
1
1
1
1
1
1
1
1
1
1
1
1
1
1
1
1
1
1
1
1
1
1
1
1
1
1
1
1
1
1
1
1
1
1
1
1
1
1
1
1
1
1
1
1
1
1
1
1
1
1
1
1
1
1
1
1
1
1
1
1
1
1
1
1
1
1
1
1
1
1
1
1
1
1
1
1
1
1
1
1
1
1
1
1
1
1
1
1
1
1
1
1
1
1
1
1
1
1
1
1
1
1
1
1
1
1
1
1
1
1
1
1
1
1
1
1
1
1
1
1
1
1
1
1
1
1
1
1
1
1
1
1
1
1
1
1
1
1
1
1
1
1
1
1
1
1
1
1
1
1
1
1
1
1
1
1
1
1
1
1
1
1
1
1
1
1
1
1
1
1
1
1
1
1
1
1
1
1
1
1
1
1
1
1
1
1
1
1
1
1
1
1
1
1
1
1
1
1
1
1
1
1
1
1
1
1
1
1
1
1
1
1
1
1
1
1
1
1
1
1
1
1
1
1
1
1
1
1
1
1
1
1
1
1
1
1
1
1
1
1
1
1
1
1
1
1
1
1
1
1
1
1
1
1
1
1
1
1
1
1
1
1
1
1
1
1
1
1
1
1
1
1
1
1
1
1
1
1
1
1
1
1
1
1
1
1
1
1
1
1
1
1
1
1
1
1
1
1
1
1
1
1
1
1
1
1
1
1
1
1
1
1
1
1
1
1
1
1
1
1
1
1
1
1
1
1
1
1
1
1
1
1
1
1
1
1
1
1
1
1
1
1
1
1
1
1
1
1
1
1
1
1
1
1
1
1
1
1
1
1
1
1
1
1
1
1
1
1
1
1
1
1
1
1
1
1
1
1
1
1
1
1
1
1
1
1
1
1
1
1
1
1
1
1
1
1
1
1
1
1
1
1
1
1
1
1
1
1
1
1
1
1
1
1
1
1
1
1
1
1
1
1
1
1
1
1
1
1
1
1
1
1
1
1
1
1
1
1
1
1
1
1
1
1
1
1
1
1
1
1
1
1
1
1
1
1
1
1
1
1
1
1
1
1
1
1
1
1
1
1
1
1
1
1
1
1
1
1
1
1
1
1
1
1
1
1
1
1
1
1
1
1
1
1
1
1
1
1
1
1
1
1
1
1
1
1
1
1
1
1
1
1
1
1
1
1
1
1
1
1
1
1
1
1
1
1
1
1
1
1
1
1
1
1
1
1
1
1
1
1
1
1
1
1
1
1
1
1
1
1
1
1
1
1
1
1
1
1
1
1
1
1
1
1
1
1
1
1
1
1
1
1
1
1
1
1
1
1
1
1
1
1
1
1
1
1
1
1
1
1
1
1
1
1
1
1
1
1
1
1
1
1
1
1
1
1
1
1
1
1
1
1
1
1
1
1
1
1
1
1
1
1
1
1
1
1
1
1
1
1
1
1
1
1
1
1
1
1
1
1
1
1
1
1
1
1
1
1
1
1
1
1
1
1
1
1
1
1
1
1
1
1
1
1
1
1
1
1
1
1
1
1
1
1
1
1
1
1
1
1
1
1
1
1
1
1
1
1
1
1
1
1
1
1
1
1
1
1
1
1
1
1
1
1
1
1
1
1
1
1
1
1
1
1
1
1
1
1
1
1
1
1
1
1
1
1
1
1
1
1
1
1
1
1
1
1
1
1
1
1
1
1
1
1
1
1
1
1
1
1
1
1
1
1
1
1
1
1
1
1
1
1
1
1
1
1
1
1
1
1
1
1
1
1
1
1
1
1
1
1
1
1
1
1
1
1
1
1
1
1
1
1
1
1
1
1
1
1
1
1
1
1
1
1
1
1
1
1
1
1
1
1
1
1
1
1
1
1
1
1
1
1
1
1
1
1
1
1
1
1
1
1
1
1
1
1
1
1
1
1
1
1
1
1
1
1
1
1
1
1
1
1
1
1
1
1
1
1
1
1
1
1
1
1
1
1
1
1
1
1
1
1
1
1
1
1
1
1
1
1
1
1
1
1
1
1
1
1
1
1
1
1
1
1
1
1
1
1
1
1
1
1
1
1
1
1
1
1
1
1
1
1
1
1
1
1
1
1
1
1
1
1
1
1
1
1
1
1
1
1
1
1
1
1
1
1
1
1
1
1
1
1
1
1
1
1
1
1
1
1
1
1
1
1
1
1
1
1
1
1
1
1
1
1
1
1
1
1
1
1
1
1
1
1
1
1
1
1
1
1
1
1
1
1
1
1
1
1
1
1
1
1
1
1
1
1
1
1
1
1
1
1
1
1
1
1
1
1
1
1
1
1
1
1
1
1
1
1
1
1
1
1
1
1
1
1
1
1
1
1
1
1
1
1
1
1
1
1
1
1
1
1
1
1
1
1
1
1
1
1
1
1
1
1
1
1
1
1
1
1
1
1
1
1
1
1
1
1
1
1
1
1
1
1
1
1
1
1
1
1
1
1
1
1
1
1
1
1
1
1
1
1
1
1
1
1
1
1
1
1
1
1
1
1
1
1
1
1
1
1
1
1
1
1
1
1
1
1
1
1
1
1
1
1
1
1
1
1
1
1
1
1
1
1
1
1
1
1
1
1
1
1
1
1
1
1
1
1
1
1
1
1
1
1
1
1
1
1
1
1
1
1
1
1
1
1
1
1
1
1
1
1
1
1
1
1
1
1
1
1
1
1
1
1
1
1
1
1
1
1
1
1
1
1
1
1
1
1
1
1
1
1
1
1
1
1
1
1
1
1
1
1
1
1
1
1
1
1
1
1
1
1
1
1
1
1
1
1
1
1
1
1
1
1
1
1
1
1
1
1
1
1
1
1
1
1
1
1
1
1
1
1
1
1
1
1
1
1
1
1
1
1
1
1
1
1
1
1
1
1
1
1
1
1
1
1
1
1
1
1
1
1
1
1
1
1
1
1
1
1
1
1
1
1
1
1
1
1
1
1
1
1
1
1
1
1
1
1
1
1
1
1
1
1
1
1
1
1
1
1
1
1
1
1
1
1
1
1
1
1
1
1
1
1
1
1
1
1
1
1
1
1
1
1
1
1
1
1
1
1
1
1
1
1
1
1
1
1
1
1
1
1
1
1
1
1
1
1
1
1
1
1
1
1
1
1
1
1
1
1
1
1
1
1
1
1
1
1
1
1
1
1
1
1
1
1
1
1
1
1
1
1
1
1
1
1
1
1
1
1
1
1
1
1
1
1
1
1
1
1
1
1
1
1
1
1
1
1
1
1
1
1
1
1
1
1
1
1
1
1
1
1
1
1
1
1
1
1
1
1
1
1
1
1
1
1
1
1
1
1
1
1
1
1
1
1
1
1
1
1
1
1
1
1
1
1
1
1
1
1
1
1
1
1
1
1
1
1
1
1
1
1
1
1
1
1
1
1
1
1
1
1
1
1
1
1
1
1
1
1
1
1
1
1
1
1
1
1
1
1
1
1
1
1
1
1
1
1
1
1
1
1
1
1
1
1
1
1
1
1
1
1
1
1
1
1
1
1
1
1
1
1
1
1
1
1
1
1
1
1
1
1
1
1
1
1
1
1
1
1
1
1
1
1
1
1
1
1
1

SCALARS density double 1
LOOKUP_TABLE default
0.999984
0.999958
0.999983
0.999994
0.99997
0.999973
1
0.999984
0.999964
1.00002
1.00002
0.999956
0.999994
1.00004
0.999985
0.999961
1.00002
1.00002
0.999974
0.99999
1.00003
1
0.999977
1.00001
1.00002
0.999981
0.999988
1.00002
0.999997
0.999972
1.00001
1.00003
0.999976
0.99998
1.00004
1.00001
0.999957
1.00001
1.00004
0.999981
0.999984
1.00003
1.00002
0.999997
1.00003
1.00003
1.00001
1.00001
1.00004
1.00002
0.999955
0.999981
0.999979
0.999971
0.99997
0.999968
0.999987
0.999992
0.999965
0.99998
1.00002
0.999991
0.999968
1.00002
1.00002
0.999973
1
1.00002
0.999983
0.999989
1.00001
0.999993
0.999984
1.00001
1.00001
0.99999
0.999992
1.00001
1.00001
0.999986
1.00001
1.00001
0.99998
0.999997
1.00002
0.999984
0.999986
1.00003
1.00001
0.999988
1.00002
1.00003
1.00001
1.00002
1.00003
1.00003
1.00003
1.00002
1.00001
1.00004
0.999957
0.999973
0.999949
0.999933
0.99998
0.999976
0.999921
0.999973
1.00001
0.999949
0.999951
1.00003
1
0.999948
1
1.00004
0.999974
0.99997
1.00004
1.00002
0.99996
1
1.00004
0.999981
0.999966
1.00003
1.00002
0.999957
0.999995
1.00004
0.999982
0.999962
1.00003
1.00002
0.999961
0.999997
1.00005
0.999996
0.999974
1.00004
1.00005
0.999984
1.00002
1.00007
1.00002
1.00002
1.00006
1.00005
1.00002
1.00003
0.999932
0.999919
0.999915
0.999916
0.999926
0.999928
0.999936
0.999927
0.999936
0.999965
0.999954
0.999959
0.999985
0.999985
0.999979
0.999996
1.00001
0.999985
0.999992
1.00001
0.999991
0.999985
1.00001
1
0.999986
1.00001
1
0.999988
1.00001
1.00001
0.999989
1.00001
1.00001
0.999991
1
1.00002
1.00001
1.00001
1.00004
1.00004
1.00003
1.00006
1.00006
1.00005
1.00007
1.00007
1.00007
1.00007
1.00008
1.00006
0.999876
0.999829
0.999865
0.999885
0.999817
0.999839
0.999913
0.999869
0.999853
0.99992
0.999939
0.999899
0.999932
1
0.999967
0.999938
1.00001
1.00003
0.999952
0.999977
1.00005
0.999996
0.999952
1.00002
1.00004
0.999963
0.999976
1.00004
1.00001
0.999948
1.00002
1.00004
0.999971
0.999983
1.00005
1.00003
0.999989
1.00006
1.00009
1.00005
1.00007
1.00013
1.00011
1.00007
1.00013
1.00015
1.00009
1.00011
1.00014
1.00011
0.999773
0.999735
0.999728
0.999726
0.999754
0.99974
0.999737
0.999781
0.999794
0.999803
0.99983
0.999862
0.999892
0.999898
0.999937
0.999964
0.999958
0.999975
1
0.999996
0.999978
1
1.00002
0.99999
0.999987
1.00001
1.00001
0.99998
0.999994
1.00002
0.999996
0.99999
1.00002
1.00003
1.00002
1.00005
1.00009
1.00009
1.00011
1.00014
1.00016
1.00016
1.00017
1.00022
1.0002
1.00019
1.00022
1.00022
1.0002
1.00018
0.999559
0.9996
0.999541
0.999493
0.999575
0.999555
0.999541
0.99959
0.999639
0.999637
0.999663
0.999761
0.999775
0.999779
0.999856
0.99993
0.999908
0.99991
1
1
0.999943
0.999989
1.00004
0.999978
0.999958
1.00003
1.00002
0.999958
1
1.00005
0.999997
0.999985
1.00007
1.00008
1.00005
1.00011
1.00018
1.00019
1.00019
1.00027
1.00029
1.00028
1.00032
1.00035
1.00034
1.00032
1.00039
1.00035
1.0003
1.00034
0.999332
0.999291
0.99928
0.999252
0.999245
0.999261
0.999291
0.999314
0.99935
0.999401
0.999474
0.999496
0.999565
0.999673
0.999703
0.999744
0.999848
0.999913
0.999887
0.999932
1.00002
0.99998
0.999943
1.00001
1.00004
0.999954
0.99998
1.00005
1.00001
0.999974
1.00005
1.0001
1.00006
1.00012
1.00021
1.00024
1.00025
1.00034
1.0004
1.0004
1.00045
1.00049
1.00051
1.00052
1.00055
1.00056
1.00054
1.00053
1.00054
1.0005
0.999059
0.998892
0.998911
0.998937
0.9989
0.998893
0.998962
0.998975
0.998986
0.999089
0.999153
0.999188
0.999278
0.9994
0.999489
0.999536
0.999677
0.999777
0.999803
0.999862
0.999952
0.999969
0.999933
1
1.00002
0.999972
0.999982
1.00005
1.00002
1.00003
1.0001
1.00016
1.00017
1.00025
1.00037
1.00039
1.00046
1.00054
1.00061
1.00063
1.00065
1.00074
1.00074
1.00074
1.00079
1.00079
1.00076
1.00077
1.0008
1.00068
0.998601
0.998568
0.998574
0.998548
0.998551
0.998566
0.998589
0.998602
0.998684
0.998681
0.998737
0.998887
0.998928
0.998995
0.999144
0.999321
0.999357
0.999484
0.999694
0.999755
0.999772
0.999892
0.999994
0.999929
0.999943
1.00004
1.00005
0.999982
1.00008
1.00018
1.00019
1.00022
1.0004
1.0005
1.0005
1.00064
1.00074
1.00078
1.00078
1.00089
1.00093
1.0009
1.00097
1.00098
1.00099
1.001
1.00102
1.00099
1.00099
1.00099
0.998206
0.998294
0.998291
0.998226
0.998326
0.998345
0.998304
0.998328
0.998412
0.998406
0.998431
0.998494
0.998604
0.998632
0.998756
0.998912
0.999039
0.999187
0.999366
0.999531
0.999636
0.99976
0.999868
0.99991
0.999951
1.00002
1.00005
1.00009
1.00017
1.00028
1.00035
1.00048
1.0006
1.00071
1.0008
1.00089
1.00097
1.00097
1.00105
1.00107
1.00109
1.00108
1.00113
1.00117
1.00113
1.00114
1.00123
1.00118
1.00118
1.00124
0.998019
0.998048
0.998116
0.998153
0.998231
0.998178
0.998276
0.998267
0.998236
0.998292
0.998308
0.998269
0.998306
0.99842
0.998429
0.998464
0.998693
0.998844
0.998955
0.999165
0.999439
0.999557
0.999625
0.999864
0.999958
0.999985
1.00007
1.00028
1.00033
1.0004
1.00063
1.00077
1.00083
1.00092
1.0011
1.00109
1.00107
1.00116
1.00118
1.00115
1.00116
1.00123
1.0012
1.00119
1.00128
1.00125
1.00128
1.00131
1.00138
1.00137
0.997903
0.997918
0.998101
0.998151
0.998183
0.998148
0.998302
0.998303
0.998258
0.998268
0.998323
0.998283
0.998236
0.998246
0.998243
0.998295
0.998299
0.998457
0.998595
0.998778
0.999012
0.999228
0.999487
0.99964
0.999884
1.00001
1.00023
1.00035
1.00056
1.00072
1.00088
1.00101
1.00108
1.0012
1.00116
1.00121
1.00121
1.00121
1.0012
1.00119
1.00125
1.00126
1.00125
1.00125
1.00135
1.00136
1.00136
1.00137
1.00151
1.0015
0.997877
0.997986
0.99812
0.997998
0.998163
0.998219
0.998218
0.998214
0.998355
0.99836
0.998294
0.998371
0.99839
0.998226
0.998276
0.998261
0.998181
0.998144
0.998334
0.998463
0.99854
0.998885
0.999214
0.999448
0.999681
1.00011
1.00033
1.00052
1.00077
1.00106
1.00108
1.00115
1.00131
1.00126
1.0012
1.00119
1.00129
1.00117
1.00121
1.00131
1.00127
1.00128
1.0014
1.00142
1.00138
1.00143
1.00155
1.00146
1.00151
1.00157
0.998004
0.998021
0.998073
0.997942
0.998067
0.998094
0.998086
0.998117
0.998232
0.998302
0.998282
0.998355
0.998406
0.998445
0.998318
0.998308
0.998268
0.998185
0.998115
0.998166
0.998356
0.99852
0.998804
0.999243
0.99964
1.00001
1.00039
1.00077
1.00102
1.00111
1.00129
1.00132
1.00127
1.00122
1.00123
1.00127
1.00118
1.00127
1.00133
1.00138
1.00139
1.00145
1.00151
1.00155
1.00154
1.00155
1.00162
1.00156
1.00157
1.00156
0.998177
0.997926
0.998031
0.998052
0.997999
0.997894
0.998035
0.998086
0.99794
0.998065
0.998243
0.998208
0.998261
0.998423
0.998461
0.998343
0.998377
0.998363
0.998135
0.998106
0.998241
0.998313
0.998559
0.998994
0.999567
0.999908
1.00044
1.00088
1.0011
1.00119
1.00131
1.00136
1.00118
1.00123
1.00131
1.00124
1.00131
1.00145
1.00151
1.00145
1.00158
1.0017
1.00155
1.00159
1.00171
1.00165
1.00158
1.00162
1.00173
1.00154
0.998202
0.998096
0.998188
0.998127
0.99813
0.998057
0.998052
0.998031
0.997987
0.997974
0.998026
0.998084
0.998116
0.998205
0.998378
0.998439
0.998438
0.998385
0.998455
0.998332
0.998185
0.998377
0.99859
0.998906
0.999273
0.999978
1.00037
1.00071
1.00097
1.00123
1.00118
1.00112
1.00129
1.00128
1.0013
1.00138
1.00153
1.00158
1.00158
1.00165
1.00166
1.00165
1.00165
1.00165
1.00161
1.00161
1.00163
1.00158
1.00165
1.00162
0.998212
0.998323
0.99832
0.998107
0.998258
0.99832
0.99811
0.998073
0.998167
0.99809
0.997873
0.997982
0.998078
0.998009
0.998045
0.99836
0.998377
0.998448
0.998538
0.998592
0.99851
0.998556
0.998812
0.998933
0.999334
0.999744
1.00021
1.00042
1.00079
1.00097
1.00102
1.00116
1.00129
1.0014
1.0014
1.00166
1.00169
1.00161
1.00168
1.00179
1.00163
1.00158
1.00167
1.0017
1.00153
1.0016
1.00173
1.00157
1.00155
1.00167
0.998312
0.998149
0.998218
0.998167
0.998193
0.998142
0.998204
0.998201
0.998119
0.99816
0.998108
0.998012
0.997955
0.99798
0.998012
0.997977
0.998276
0.998425
0.998542
0.998712
0.998995
0.998993
0.998969
0.999299
0.999458
0.999558
0.999766
1.00026
1.00041
1.00056
1.00094
1.00121
1.00133
1.00145
1.00174
1.00167
1.00168
1.00175
1.0017
1.00163
1.00163
1.00173
1.00163
1.00164
1.00172
1.00169
1.00167
1.00169
1.00175
1.00161
0.998235
0.997934
0.99803
0.998102
0.998021
0.997927
0.998124
0.998239
0.998063
0.998144
0.998266
0.998173
0.997973
0.998066
0.998051
0.997947
0.998008
0.998382
0.998565
0.998847
0.999203
0.99945
0.999519
0.999553
0.999531
0.999509
0.999583
0.999743
1
1.00036
1.00082
1.00113
1.00134
1.00166
1.00172
1.00166
1.00165
1.00175
1.00164
1.00157
1.00168
1.00176
1.0016
1.00169
1.00182
1.00177
1.00168
1.00177
1.00185
1.00166
0.997889
0.997966
0.997984
0.997794
0.997962
0.998062
0.99788
0.99797
0.998111
0.998137
0.998018
0.998242
0.998244
0.998049
0.99804
0.998113
0.998067
0.998132
0.99858
0.99902
0.999256
0.999693
1.00005
0.999791
0.999639
0.999556
0.999477
0.999324
0.999726
1.00031
1.00057
1.00102
1.00149
1.0016
1.00157
1.00169
1.00175
1.00157
1.00159
1.00182
1.00169
1.00167
1.0018
1.00188
1.00167
1.00177
1.00192
1.00176
1.00175
1.00189
0.997766
0.99794
0.997989
0.997793
0.99799
0.99806
0.997856
0.997852
0.998016
0.99805
0.997941
0.998064
0.998263
0.998199
0.998121
0.998241
0.998343
0.998285
0.998615
0.999048
0.999521
0.999857
1.00002
1.00014
0.999834
0.999595
0.999295
0.999408
0.999604
0.999915
1.00045
1.00091
1.00129
1.00134
1.00149
1.00166
1.00162
1.00159
1.00175
1.00183
1.00174
1.00176
1.00187
1.00189
1.00173
1.0018
1.00192
1.0018
1.0018
1.00192
0.997916
0.997666
0.997826
0.998025
0.997901
0.997721
0.997958
0.998016
0.997714
0.99784
0.998061
0.997937
0.997911
0.998241
0.998358
0.998248
0.998432
0.998841
0.998809
0.999112
0.999638
0.999906
0.999971
1.00009
1.00012
0.999566
0.999485
0.99953
0.999541
0.999744
1.00028
1.00071
1.00075
1.00123
1.00152
1.00146
1.00156
1.00186
1.00184
1.00169
1.00187
1.00202
1.00173
1.00179
1.00202
1.00191
1.00173
1.00195
1.00205
1.0018
0.997818
0.997677
0.997811
0.997895
0.997831
0.997778
0.997888
0.998024
0.997872
0.997848
0.997947
0.998017
0.997876
0.998031
0.998341
0.998469
0.998657
0.998955
0.999349
0.999395
0.999587
0.999828
0.999963
0.999979
0.999822
0.99999
0.999774
0.999629
0.999616
0.999805
1.00001
1.00014
1.00066
1.00102
1.00127
1.00145
1.00174
1.00185
1.00174
1.00183
1.00189
1.00187
1.00177
1.0019
1.00192
1.00193
1.00187
1.00194
1.00199
1.00192
0.997658
0.998076
0.997979
0.997642
0.997917
0.998175
0.997853
0.997855
0.998193
0.998083
0.997763
0.997983
0.99819
0.997949
0.998116
0.998713
0.998972
0.999166
0.999585
0.999935
0.999689
0.999662
0.999869
0.999743
0.999847
1.00005
1.0001
0.999795
0.999836
0.999788
0.999555
0.999905
1.0004
1.00071
1.00098
1.00158
1.0018
1.0016
1.0018
1.00204
1.00177
1.00168
1.00197
1.002
1.00166
1.00188
1.00209
1.00185
1.00169
1.00207
0.997947
0.997871
0.997846
0.997852
0.997864
0.997852
0.997894
0.997809
0.997763
0.997943
0.997934
0.99784
0.997958
0.998183
0.998233
0.998509
0.999147
0.99954
0.999733
0.999923
1.00001
0.999695
0.999473
0.999693
0.999936
1
1.00013
1.00031
0.999996
0.999585
0.999611
0.999811
1.00003
1.00045
1.00114
1.00145
1.00154
1.00183
1.00196
1.00187
1.00191
1.00211
1.00201
1.00197
1.00204
1.00203
1.00194
1.00204
1.002
1.00188
0.998134
0.997525
0.997712
0.998158
0.997726
0.99742
0.997839
0.998003
0.997511
0.997721
0.998176
0.997992
0.99783
0.998334
0.998704
0.998648
0.999163
0.999868
0.999983
0.999896
1.00001
0.99987
0.999467
0.999555
0.99984
1.00005
1.00031
1.0004
0.999988
0.999704
0.999726
0.999629
0.999698
1.00039
1.00096
1.00102
1.00142
1.00191
1.00183
1.00166
1.00206
1.00225
1.00183
1.00198
1.00233
1.00214
1.00176
1.00214
1.00231
1.00184
0.99766
0.99788
0.997864
0.997644
0.997746
0.997919
0.997705
0.997752
0.997951
0.997807
0.997763
0.998069
0.998198
0.998197
0.998664
0.999206
0.999372
0.999632
1.00007
1.00013
0.999739
0.999697
0.9998
0.999603
0.999729
1.00012
1.00033
1.00016
1.00018
1.00014
0.999639
0.999534
0.999938
1.00023
1.00042
1.00103
1.00157
1.00159
1.00174
1.0021
1.00202
1.00187
1.00209
1.00216
1.00187
1.00209
1.00226
1.00204
1.00198
1.00231
0.997538
0.998066
0.997838
0.997365
0.997776
0.998172
0.99766
0.997522
0.99798
0.997976
0.997465
0.997779
0.998322
0.998372
0.998551
0.999344
0.999766
0.999647
0.999857
0.999972
0.999812
0.999639
0.999777
0.999868
0.99977
1.00008
1.0001
1.0002
1.00036
1.00013
0.999875
0.999835
0.999969
0.999875
1.00029
1.00107
1.00134
1.00145
1.002
1.00231
1.00192
1.00197
1.00232
1.00224
1.00181
1.00213
1.00243
1.00214
1.00191
1.00234
0.997886
0.997412
0.997463
0.998029
0.997634
0.997409
0.997865
0.997883
0.997406
0.99768
0.998066
0.997801
0.998016
0.998798
0.999181
0.999279
0.999832
1.00018
0.999684
0.999633
0.999861
0.999843
0.999728
0.99994
1.00019
0.999789
0.999951
1.00026
1.00023
1.00014
1.00026
1.00017
0.999565
0.999794
1.00037
1.00048
1.00086
1.00169
1.00197
1.00172
1.00214
1.0025
1.00201
1.00203
1.00252
1.00231
1.00184
1.00245
1.00252
1.00204
0.997738
0.997276
0.997522
0.997895
0.997581
0.997327
0.997714
0.997919
0.997513
0.997633
0.99812
0.998186
0.998119
0.998788
0.999433
0.999597
0.999682
0.999907
0.999827
0.999409
0.999544
0.999793
0.999958
1.00007
0.99997
0.999995
0.999909
1.00005
1.00024
1.00048
1.00061
1.00011
0.999916
1.00005
1.00009
1.00025
1.00094
1.00161
1.00162
1.00178
1.00221
1.00231
1.00204
1.00224
1.00249
1.00238
1.00214
1.00236
1.00255
1.00227
0.997032
0.998068
0.997819
0.996985
0.997607
0.998093
0.997288
0.997294
0.998124
0.998003
0.997473
0.998201
0.998944
0.998715
0.999188
0.999961
0.999934
0.999454
0.99959
0.999767
0.999364
0.999709
1.00021
1.00005
0.999957
1.00002
1.00001
0.999822
1.00024
1.00071
1.00033
1.00036
1.00041
0.999891
0.999731
1.00047
1.00107
1.00089
1.0016
1.00242
1.00196
1.00176
1.00259
1.00266
1.00185
1.00234
1.00295
1.00219
1.00187
1.00285
0.997434
0.997706
0.997416
0.997308
0.997474
0.997671
0.997476
0.997403
0.997636
0.99784
0.997714
0.998082
0.998797
0.999268
0.99939
0.99983
1.00002
0.999678
0.999425
0.99952
0.999745
0.999718
0.999916
1.00016
1.00009
0.999976
0.999858
1.00009
1.00035
1.00033
1.00056
1.00065
1.0003
0.999821
0.999973
1.00038
1.00049
1.00105
1.0018
1.00209
1.00207
1.00234
1.00246
1.00241
1.00238
1.0025
1.00252
1.00263
1.00238
1.0024
0.998185
0.996753
0.99726
0.998378
0.99757
0.996863
0.997898
0.998207
0.997136
0.997469
0.99853
0.99846
0.998431
0.999577
1.00019
0.999571
0.999673
0.999836
0.999461
0.999278
0.999716
0.999937
0.999725
0.99995
1.00016
0.999917
1.00002
1.0003
1.00018
1.00035
1.00081
1.00071
1.00021
1.00026
1.00038
0.999736
1.00021
1.0014
1.00148
1.00133
1.00236
1.00282
1.00183
1.00209
1.00308
1.00249
1.0017
1.00273
1.00322
1.00195
0.997118
0.997597
0.997625
0.997377
0.997444
0.997641
0.99735
0.997477
0.997728
0.997575
0.997896
0.998619
0.999097
0.999311
0.99977
1.00006
0.999489
0.999364
0.999563
0.999611
0.999536
0.999764
0.999996
0.999793
0.999807
1.00017
1.0003
1.0001
1.00026
1.00055
1.00056
1.00054
1.00074
1.00063
0.999962
1.00014
1.00067
1.0008
1.0012
1.00201
1.00234
1.00218
1.00257
1.00276
1.00231
1.00259
1.0028
1.00242
1.00235
1.00312
0.99686
0.998377
0.997784
0.996475
0.997489
0.998409
0.997055
0.996882
0.998147
0.998342
0.997568
0.998627
0.999783
0.999455
0.999428
1.00004
0.99987
0.999129
0.999551
0.999937
0.999686
0.999683
0.999911
0.999824
0.999805
1.00019
1.00026
1.00018
1.0004
1.00045
1.0002
1.00058
1.00106
1.00038
1.00006
1.00059
1.00061
1.00017
1.00122
1.00239
1.00174
1.00183
1.00306
1.00297
1.0018
1.00254
1.00347
1.00241
1.00185
1.00312
0.998107
0.997029
0.997033
0.9981
0.997387
0.996825
0.99772
0.997832
0.997156
0.997805
0.998879
0.998677
0.999037
0.99985
1.00003
0.999427
0.999454
0.999763
0.999465
0.999564
0.999865
0.999783
0.999498
0.999729
1.00007
1.00002
1.00024
1.00058
1.00044
1.00025
1.00053
1.0008
1.00051
1.00069
1.00081
1.00019
1.0001
1.00094
1.00141
1.00114
1.00215
1.00295
1.00221
1.00226
1.00334
1.00281
1.00192
1.00317
1.00328
1.00203
0.99795
0.996267
0.997069
0.998357
0.997255
0.996397
0.997712
0.998198
0.996951
0.997452
0.998946
0.999213
0.998806
0.999819
1.00019
0.999402
0.999238
0.999724
0.999799
0.999429
0.999697
0.999803
0.999567
0.999673
0.999914
1.0001
1.00036
1.00055
1.00035
1.00041
1.00074
1.0005
1.00053
1.00105
1.00095
1.00004
1.00025
1.00128
1.00098
1.00109
1.0025
1.00304
1.00202
1.0024
1.00353
1.00294
1.00207
1.00304
1.00378
1.00254
0.996033
0.998416
0.997816
0.99596
0.99737
0.998502
0.996862
0.996727
0.998472
0.998344
0.997749
0.999112
1.00042
0.999613
0.999495
0.999925
0.999635
0.999279
0.999733
0.999995
0.999478
0.999558
0.999902
0.999779
0.999796
1.00021
1.00037
1.00022
1.00049
1.00072
1.00028
1.00045
1.00106
1.00084
1.00036
1.00073
1.00081
0.999923
1.00091
1.0024
1.00187
1.00151
1.00332
1.0034
1.00164
1.00279
1.00435
1.00243
1.00174
1.00427
0.997011
0.998046
0.9972
0.996458
0.997243
0.998019
0.997071
0.996788
0.997994
0.998356
0.998038
0.998867
0.999974
0.999923
0.999341
0.999582
0.999571
0.999403
0.999571
0.999695
0.999639
0.999496
0.999609
0.999785
0.999961
1.00016
1.00024
1.00043
1.00068
1.00054
1.00044
1.00067
1.00096
1.00078
1.00078
1.00108
1.00055
1.00031
1.00132
1.00214
1.00187
1.00219
1.00325
1.00306
1.00243
1.00304
1.00354
1.0033
1.00257
1.00302
0.998866
0.995276
0.996452
0.99917
0.997124
0.995489
0.998041
0.998774
0.99657
0.997652
0.999825
0.999304
0.998858
1.00011
1.00053
0.99917
0.999355
1.00015
0.999711
0.999324
0.999733
0.999808
0.99942
0.999773
1.00022
1.00003
1.00027
1.00066
1.00039
1.00037
1.00087
1.00072
1.0002
1.00093
1.00146
1.00019
1.0002
1.00151
1.00124
1.00041
1.00239
1.00373
1.00156
1.00202
1.00479
1.00326
1.00115
1.00387
1.00512
1.00158
0.996449
0.996668
0.997277
0.997185
0.996849
0.996953
0.997198
0.997594
0.99782
0.997925
0.9988
0.99937
0.999599
0.999726
0.999753
0.999707
0.999535
0.999593
0.999516
0.999369
0.99946
0.999533
0.999627
0.999784
0.99997
1.00017
1.00041
1.00048
1.00048
1.00063
1.00083
1.00069
1.00068
1.00098
1.00094
1.00083
1.0009
1.001
1.00105
1.00158
1.00243
1.00243
1.00277
1.00323
1.00318
1.00346
1.00359
1.00307
1.00343
1.00447
0.995202
0.999842
0.998143
0.994153
0.99734
0.999452
0.996284
0.995974
0.999052
0.99924
0.997479
0.999271
1.00084
0.999552
0.999082
1.0001
1.00011
0.99911
0.999363
0.999862
0.999478
0.999459
0.999825
0.999888
0.999962
1.00031
1.00037
1.00029
1.0006
1.00069
1.00026
1.00071
1.00132
1.00058
1.00038
1.00153
1.00141
0.999876
1.00107
1.0031
1.00148
1.00108
1.0042
1.00424
1.00098
1.00294
1.00624
1.00253
1.00096
1.00524
0.998581
0.99604
0.995832
0.998141
0.996884
0.996063
0.997411
0.997698
0.997278
0.997968
0.999523
0.99947
0.999489
0.999949
0.999939
0.999597
0.999555
0.999779
0.999398
0.999166
0.999496
0.999627
0.999573
0.999899
1.00024
1.00023
1.00031
1.00057
1.00053
1.00049
1.00082
1.00087
1.0006
1.00084
1.00108
1.00089
1.00078
1.0013
1.00146
1.00115
1.00245
1.00326
1.00271
1.00277
1.00446
1.00384
1.00213
1.00496
1.00511
1.00181
0.999013
0.993394
0.996237
1.00004
0.996757
0.994452
0.998265
0.999158
0.996392
0.997693
1.00034
0.99993
0.998944
1.00013
1.00056
0.999339
0.999337
0.999818
0.999259
0.998891
0.999482
0.999708
0.999466
0.999925
1.00032
1.00017
1.00038
1.00071
1.00031
1.00037
1.00112
1.00097
1.00036
1.00106
1.0016
1.00043
1.0006
1.00212
1.00137
1.00035
1.00273
1.00436
1.00148
1.00187
1.00594
1.00407
1.00079
1.00447
1.00709
1.00238
0.993434
0.99934
0.998058
0.993838
0.996627
0.999108
0.996089
0.995677
0.998665
0.998927
0.998169
0.99942
1.00086
0.99988
0.999273
1.00001
0.999888
0.999125
0.999126
0.999491
0.999407
0.999431
0.999895
1.00012
1.00018
1.0004
1.00045
1.00035
1.00054
1.00061
1.00053
1.00089
1.00118
1.00069
1.00049
1.00146
1.00145
1.00044
1.00148
1.00291
1.00205
1.00156
1.00461
1.00466
1.0015
1.00373
1.0073
1.00277
1.00136
1.00843
0.995969
1.00038
0.997138
0.993301
0.997317
0.999074
0.9961
0.99622
0.99896
0.999072
0.998261
0.999892
1.00102
1.00001
0.999605
1.00007
0.999708
0.998889
0.999002
0.999178
0.999064
0.999435
1.00001
1.00012
1.00021
1.00051
1.00042
1.00023
1.00059
1.00079
1.0005
1.00079
1.00135
1.00077
1.00042
1.0014
1.00158
1.00037
1.00127
1.00317
1.00212
1.00142
1.00426
1.00481
1.0016
1.00315
1.00739
1.00396
1.0017
1.0051
1.00079
0.989077
0.993785
1.00129
0.996452
0.993014
0.997701
0.999291
0.996292
0.997163
1.00057
1.00033
0.999262
1.00044
1.00074
0.999282
0.998845
0.999599
0.999184
0.998648
0.999277
0.99985
0.999866
1.00021
1.00053
1.00036
1.00045
1.00062
1.00027
1.00044
1.00123
1.00099
1.00037
1.0012
1.00153
1.00039
1.00068
1.00253
1.00176
1.00051
1.00347
1.00491
1.00144
1.00209
1.00757
1.00479
0.999293
1.00729
1.01162
0.998849
0.994354
0.993924
0.996691
0.99819
0.99576
0.996325
0.99766
0.997684
0.997182
0.998756
0.999911
0.999968
1.00037
1.00089
1.00026
0.999375
0.99924
0.999177
0.998614
0.998703
0.999255
0.999597
0.99986
1.00045
1.00061
1.00031
1.0003
1.00059
1.00041
1.00041
1.00096
1.00115
1.00061
1.00077
1.00121
1.00083
1.00061
1.00172
1.00219
1.00152
1.00235
1.00408
1.00317
1.00248
1.00449
1.00569
1.00241
1.0044
1.00803
1.0088
0.992872
1.00729
0.99743
0.990302
0.996998
1.00064
0.995079
0.995209
0.99939
0.999274
0.997566
1.00001
1.00192
1.00053
0.999645
1.00033
0.999506
0.998222
0.998465
0.999032
0.998914
0.99944
1.00038
1.00052
1.00051
1.00077
1.00038
1.00003
1.00061
1.00078
1.00023
1.00092
1.00177
1.00066
0.999992
1.00182
1.00167
0.999765
1.00164
1.00469
1.00184
1.00062
1.00623
1.006
0.998808
1.00417
1.01236
1.00127
0.995945
1.02316

VECTORS velocity double
2.12671e-006 2.87696e-006 0
2.64948e-009 4.21304e-006 0
-6.05803e-007 3.5532e-006 0
-7.19434e-007 2.22687e-006 0
2.82359e-006 8.61698e-007 0
-1.17651e-006 7.02667e-006 0
-4.02935e-006 7.10035e-007 0
-1.20816e-006 5.35795e-007 0
3.62506e-006 7.0278e-006 0
-4.19426e-006 2.0863e-006 0
-9.41315e-007 -5.23997e-006 0
7.62006e-006 4.53473e-006 0
1.09926e-006 4.11744e-006 0
-2.07174e-006 -2.50643e-006 0
5.81898e-006 -4.67038e-006 0
1.84789e-006 2.51297e-006 0
-2.08934e-006 2.07763e-006 0
4.2459e-006 -1.51467e-006 0
4.72296e-006 -2.68466e-006 0
3.04247e-006 3.82581e-006 0
5.72894e-006 -5.43914e-007 0
4.20663e-006 -2.03958e-006 0
4.69026e-006 1.88632e-006 0
7.89938e-006 1.10495e-006 0
5.2785e-006 -3.11905e-006 0
5.46887e-006 2.87595e-006 0
8.46276e-006 -2.38543e-007 0
5.54436e-006 -1.80467e-006 0
4.97347e-006 1.60702e-006 0
6.80934e-006 1.10756e-006 0
4.46694e-006 -3.49458e-006 0
5.54358e-006 2.073e-006 0
4.58154e-006 1.58233e-006 0
-1.11225e-006 -1.75855e-006 0
2.38903e-006 -2.45317e-006 0
5.35219e-006 4.56285e-006 0
-1.77487e-006 2.23087e-006 0
1.48488e-006 -4.13401e-006 0
6.92699e-006 -3.72587e-006 0
-1.22923e-006 4.85723e-006 0
-3.72813e-006 -2.52788e-006 0
3.30068e-006 -6.55224e-006 0
-1.7398e-006 -9.7612e-008 0
-4.21863e-006 -9.91334e-007 0
-1.37029e-006 -6.88059e-006 0
2.3669e-006 -5.13129e-007 0
-7.13802e-007 -1.94844e-006 0
-1.04411e-006 -3.10131e-006 0
1.28192e-007 -3.79104e-006 0
2.12263e-006 -2.34215e-006 0
-6.25086e-007 1.0414e-005 0
-3.46356e-006 1.27277e-005 0
3.73477e-006 1.47625e-005 0
-2.54836e-006 6.95856e-006 0
-2.91846e-006 8.32779e-006 0
-5.22036e-007 2.11418e-005 0
-2.78495e-006 5.37779e-006 0
-6.58207e-006 1.49526e-006 0
2.26386e-006 1.35636e-005 0
2.68957e-006 1.4225e-005 0
-5.76099e-006 -5.5494e-006 0
-2.77091e-006 2.66015e-006 0
7.6455e-006 1.04267e-005 0
9.61597e-007 1.31624e-008 0
-6.64619e-007 -4.48698e-006 0
6.36438e-006 4.89814e-006 0
4.80537e-006 8.00083e-007 0
2.38169e-006 -1.30713e-007 0
7.81397e-006 7.66242e-007 0
6.84277e-006 3.28074e-006 0
4.20985e-006 -2.28955e-006 0
6.01074e-006 9.37172e-007 0
6.8206e-006 3.33772e-006 0
6.05334e-006 2.97564e-007 0
6.18187e-006 -4.12416e-006 0
5.13583e-006 4.3346e-006 0
5.33012e-006 3.8497e-007 0
7.38524e-006 -3.34688e-006 0
5.21543e-006 -6.18508e-007 0
2.86925e-006 2.88484e-006 0
6.87213e-006 -3.6185e-006 0
7.58066e-006 -5.15961e-007 0
1.47664e-006 1.00787e-006 0
4.42174e-006 -1.17195e-006 0
6.50197e-006 -4.22828e-006 0
-3.91713e-007 5.45367e-006 0
1.05138e-006 -3.64697e-008 0
7.06567e-006 -9.62219e-006 0
-2.4435e-006 -6.39702e-007 0
-4.60993e-006 4.92706e-006 0
2.62175e-006 -1.37453e-005 0
1.37701e-006 -1.14945e-005 0
-5.33602e-006 -1.23759e-006 0
-2.27283e-006 -5.27493e-006 0
-5.31597e-007 -1.90768e-005 0
-2.64277e-006 -7.62542e-006 0
-1.36904e-006 -5.88597e-006 0
4.19192e-006 -1.33967e-005 0
-2.05758e-006 -1.1424e-005 0
-4.38795e-007 -8.81125e-006 0
2.17637e-006 2.29627e-005 0
-5.37333e-007 2.40978e-005 0
-9.92385e-007 2.43563e-005 0
-4.01105e-006 3.12158e-005 0
-1.06584e-005 1.9155e-005 0
-1.06064e-005 1.98889e-005 0
4.63902e-006 3.03851e-005 0
-9.77108e-006 1.95447e-005 0
-1.75371e-005 5.22101e-006 0
4.70393e-007 2.35708e-005 0
1.71541e-006 1.43976e-005 0
-1.4667e-005 -1.76367e-007 0
-7.94164e-006 7.031e-006 0
2.60886e-006 9.09152e-006 0
-7.15497e-006 -2.08942e-006 0
-1.2113e-005 2.77084e-006 0
-6.17561e-007 2.60101e-006 0
-3.15942e-006 1.15586e-006 0
-1.15978e-005 1.71175e-006 0
-5.75569e-006 -1.60136e-006 0
-3.31526e-006 8.6126e-007 0
-1.29554e-005 2.99999e-006 0
-1.05284e-005 -5.26903e-006 0
-4.96002e-006 9.7333e-007 0
-1.3103e-005 5.1819e-006 0
-1.3094e-005 -3.97011e-006 0
-4.87476e-006 -1.92141e-006 0
-1.0641e-005 5.49275e-006 0
-1.29721e-005 -1.02406e-006 0
-3.1719e-006 -1.11477e-006 0
-5.69904e-006 1.35453e-006 0
-1.15626e-005 2.11124e-007 0
-2.64876e-006 -4.84743e-007 0
-4.68549e-007 -2.72801e-006 0