# vtk DataFile Version 4.0
SiwiRVisFile
ASCII
DATASET STRUCTURED_POINTS
DIMENSIONS 50 50 1
ORIGIN 0 0 0
SPACING 1 1 1
POINT_DATA 2500

SCALARS flags double 1
LOOKUP_TABLE default
1
1
1
1
1
1
1
1
1
1
1
1
1
1
1
1
1
1
1
1
1
1
1
1
1
1
1
1
1
1
1
1
1
1
1
1
1
1
1
1
1
1
1
1
1
1
1
1
1
1
1
1
1
1
1
1
1
1
1
1
1
1
1
1
1
1
1
1
1
1
1
1
1
1
1
1
1
1
1
1
1
1
1
1
1
1
1
1
1
1
1
1
1
1
1
1
1
1
1
1
1
1
1
1
1
1
1
1
1
1
1
1
1
1
1
1
1
1
1
1
1
1
1
1
1
1
1
1
1
1
1
1
1
1
1
1
1
1
1
1
1
1
1
1
1
1
1
1
1
1
1
1
1
1
1
1
1
1
1
1
1
1
1
1
1
1
1
1
1
1
1
1
1
1
1
1
1
1
1
1
1
1
1
1
1
1
1
1
1
1
1
1
1
1
1
1
1
1
1
1
1
1
1
1
1
1
1
1
1
1
1
1
1
1
1
1
1
1
1
1
1
1
1
1
1
1
1
1
1
1
1
1
1
1
1
1
1
1
1
1
1
1
1
1
1
1
1
1
1
1
1
1
1
1
1
1
1
1
1
1
1
1
1
1
1
1
1
1
1
1
1
1
1
1
1
1
1
1
1
1
1
1
1
1
1
1
1
1
1
1
1
1
1
1
1
1
1
1
1
1
1
1
1
1
1
1
1
1
1
1
1
1
1
1
1
1
1
1
1
1
1
1
1
1
1
1
1
1
1
1
1
1
1
1
1
1
1
1
1
1
1
1
1
1
1
1
1
1
1
1
1
1
1
1
1
1
1
1
1
1
1
1
1
1
1
1
1
1
1
1
1
1
1
1
1
1
1
1
1
1
1
1
1
1
1
1
1
1
1
1
1
1
1
1
1
1
1
1
1
1
1
1
1
1
1
1
1
1
1
1
1
1
1
1
1
1
1
1
1
1
1
1
1
1
1
1
1
1
1
1
1
1
1
1
1
1
1
1
1
1
1
1
1
1
1
1
1
1
1
1
1
1
1
1
1
1
1
1
1
1
1
1
1
1
1
1
1
1
1
1
1
1
1
1
1
1
1
1
1
1
1
1
1
1
1
1
1
1
1
1
1
1
1
1
1
1
1
1
1
1
1
1
1
1
1
1
1
1
1
1
1
1
1
1
1
1
1
1
1
1
1
1
1
1
1
1
1
1
1
1
1
1
1
1
1
1
1
1
1
1
1
1
1
1
1
1
1
1
1
1
1
1
1
1
1
1
1
1
1
1
1
1
1
1
1
1
1
1
1
1
1
1
1
1
1
1
1
1
1
1
1
1
1
1
1
1
1
1
1
1
1
1
1
1
1
1
1
1
1
1
1
1
1
1
1
1
1
1
1
1
1
1
1
1
1
1
1
1
1
1
1
1
1
1
1
1
1
1
1
1
1
1
1
1
1
1
1
1
1
1
1
1
1
1
1
1
1
1
1
1
1
1
1
1
1
1
1
1
1
1
1
1
1
1
1
1
1
1
1
1
1
1
1
1
1
1
1
1
1
1
1
1
1
1
1
1
1
1
1
1
1
1
1
1
1
1
1
1
1
1
1
1
1
1
1
1
1
1
1
1
1
1
1
1
1
1
1
1
1
1
1
1
1
1
1
1
1
1
1
1
1
1
1
1
1
1
1
1
1
1
1
1
1
1
1
1
1
1
1
1
1
1
1
1
1
1
1
1
1
1
1
1
1
1
1
1
1
1
1
1
1
1
1
1
1
1
1
1
1
1
1
1
1
1
1
1
1
1
1
1
1
1
1
1
1
1
1
1
1
1
1
1
1
1
1
1
1
1
1
1
1
1
1
1
1
1
1
1
1
1
1
1
1
1
1
1
1
1
1
1
1
1
1
1
1
1
1
1
1
1
1
1
1
1
1
1
1
1
1
1
1
1
1
1
1
1
1
1
1
1
1
1
1
1
1
1
1
1
1
1
1
1
1
1
1
1
1
1
1
1
1
1
1
1
1
1
1
1
1
1
1
1
1
1
1
1
1
1
1
1
1
1
1
1
1
1
1
1
1
1
1
1
1
1
1
1
1
1
1
1
1
1
1
1
1
1
1
1
1
1
1
1
1
1
1
1
1
1
1
1
1
1
1
1
1
1
1
1
1
1
1
1
1
1
1
1
1
1
1
1
1
1
1
1
1
1
1
1
1
1
1
1
1
1
1
1
1
1
1
1
1
1
1
1
1
1
1
1
1
1
1
1
1
1
1
1
1
1
1
1
1
1
1
1
1
1
1
1
1
1
1
1
1
1
1
1
1
1
1
1
1
1
1
1
1
1
1
1
1
1
1
1
1
1
1
1
1
1
1
1
1
1
1
1
1
1
1
1
1
1
1
1
1
1
1
1
1
1
1
1
1
1
1
1
1
1
1
1
1
1
1
1
1
1
1
1
1
1
1
1
1
1
1
1
1
1
1
1
1
1
1
1
1
1
1
1
1
1
1
1
1
1
1
1
1
1
1
1
1
1
1
1
1
1
1
1
1
1
1
1
1
1
1
1
1
1
1
1
1
1
1
1
1
1
1
1
1
1
1
1
1
1
1
1
1
1
1
1
1
1
1
1
1
1
1
1
1
1
1
1
1
1
1
1
1
1
1
1
1
1
1
1
1
1
1
1
1
1
1
1
1
1
1
1
1
1
1
1
1
1
1
1
1
1
1
1
1
1
1
1
1
1
1
1
1
1
1
1
1
1
1
1
1
1
1
1
1
1
1
1
1
1
1
1
1
1
1
1
1
1
1
1
1
1
1
1
1
1
1
1
1
1
1
1
1
1
1
1
1
1
1
1
1
1
1
1
1
1
1
1
1
1
1
1
1
1
1
1
1
1
1
1
1
1
1
1
1
1
1
1
1
1
1
1
1
1
1
1
1
1
1
1
1
1
1
1
1
1
1
1
1
1
1
1
1
1
1
1
1
1
1
1
1
1
1
1
1
1
1
1
1
1
1
1
1
1
1
1
1
1
1
1
1
1
1
1
1
1
1
1
1
1
1
1
1
1
1
1
1
1
1
1
1
1
1
1
1
1
1
1
1
1
1
1
1
1
1
1
1
1
1
1
1
1
1
1
1
1
1
1
1
1
1
1
1
1
1
1
1
1
1
1
1
1
1
1
1
1
1
1
1
1
1
1
1
1
1
1
1
1
1
1
1
1
1
1
1
1
1
1
1
1
1
1
1
1
1
1
1
1
1
1
1
1
1
1
1
1
1
1
1
1
1
1
1
1
1
1
1
1
1
1
1
1
1
1
1
1
1
1
1
1
1
1
1
1
1
1
1
1
1
1
1
1
1
1
1
1
1
1
1
1
1
1
1
1
1
1
1
1
1
1
1
1
1
1
1
1
1
1
1
1
1
1
1
1
1
1
1
1
1
1
1
1
1
1
1
1
1
1
1
1
1
1
1
1
1
1
1
1
1
1
1
1
1
1
1
1
1
1
1
1
1
1
1
1
1
1
1
1
1
1
1
1
1
1
1
1
1
1
1
1
1
1
1
1
1
1
1
1
1
1
1
1
1
1
1
1
1
1
1
1
1
1
1
1
1
1
1
1
1
1
1
1
1
1
1
1
1
1
1
1
1
1
1
1
1
1
1
1
1
1
1
1
1
1
1
1
1
1
1
1
1
1
1
1
1
1
1
1
1
1
1
1
1
1
1
1
1
1
1
1
1
1
1
1
1
1
1
1
1
1
1
1
1
1
1
1
1
1
1
1
1
1
1
1
1
1
1
1
1
1
1
1
1
1
1
1
1
1
1
1
1
1
1
1
1
1
1
1
1
1
1
1
1
1
1
1
1
1
1
1
1
1
1
1
1
1
1
1
1
1
1
1
1
1
1
1
1
1
1
1
1
1
1
1
1
1
1
1
1
1
1
1
1
1
1
1
1
1
1
1
1
1
1
1
1
1
1
1
1
1
1
1
1
1
1
1
1
1
1
1
1
1
1
1
1
1
1
1
1
1
1
1
1
1
1
1
1
1
1
1
1
1
1
1
1
1
1
1
1
1
1
1
1
1
1
1
1
1
1
1
1
1
1
1
1
1
1
1
1
1
1
1
1
1
1
1
1
1
1
1
1
1
1
1
1
1
1
1
1
1
1
1
1
1
1
1
1
1
1
1
1
1
1
1
1
1
1
1
1
1
1
1
1
1
1
1
1
1
1
1
1
1
1
1
1
1
1
1
1
1
1
1
1
1
1
1
1
1
1
1
1
1
1
1
1
1
1
1
1
1
1
1
1
1
1
1
1
1
1
1
1
1
1
1
1
1
1
1
1
1
1
1
1
1
1
1
1
1
1
1
1
1
1
1
1
1
1
1
1
1
1
1
1
1
1
1
1
1
1
1
1
1
1
1
1
1
1
1
1
1
1
1
1
1
1
1
1
1
1
1
1
1
1
1
1
1
1
1
1
1
1
1
1
1
1
1
1
1
1
1
1
1
1
1
1
1
1
1
1
1
1
1
1
1
1
1
1
1
1
1
1
1
1
1
1
1
1
1
1
1
1
1
1
1
1
1
1
1
1
1
1
1
1
1
1
1
1
1
1
1
1
1
1
1
1
1
1
1
1
1
1
1
1
1
1
1
1
1
1
1
1
1
1
1
1
1
1
1
1
1
1
1
1
1
1
1
1
1
1
1
1
1
1
1
1
1
1
1
1
1
1
1
1
1
1
1
1
1
1
1
1
1
1
1
1
1
1
1
1
1
1
1
1
1
1
1
1
1
1
1
1
1
1
1
1
1
1
1
1
1
1
1
1
1
1
1
1
1
1
1
1
1
1
1
1
1
1
1
1
1
1
1
1
1
1
1
1
1
1
1
1
1
1
1
1
1
1
1
1
1
1
1
1
1
1
1
1
1
1
1
1
1
1
1
1
1
1
1
1
1
1
1
1
1
1
1
1
1
1
1
1
1
1
1
1
1
1
1
1
1
1
1
1
1
1
1
1
1
1
1
1
1
1
1
1
1
1
1
1
1
1
1
1
1
1
1
1
1
1
1
1
1
1
1
1
1
1
1
1
1
1
1
1
1
1
1
1
1
1
1
1
1
1
1
1
1
1
1
1
1
1
1
1
1
1
1
1
1
1
1
1
1
1
1
1
1
1
1
1
1
1
1
1
1
1
1
1
1
1
1
1
1
1
1
1
1
1
1
1
1
1
1
1
1
1
1
1
1
1
1
1
1
1
1
1
1
1
1
1
1
1
1
1
1
1
1
1
1
1
1
1
1
1
1
1
1
1
1
1
1
1
1
1
1
1
1
1
1
1
1
1
1
1
1
1
1
1
1
1
1
1
1
1
1
1
1
1
1
1
1
1
1
1
1
1
1
1
1
1
1
1
1
1
1
1
1
1
1
1
1
1
1
1
1
1
1
1
1
1
1
1
1
1
1
1
1
1
1
1
1
1
1
1
1
1
1
1
1
1
1
1
1
1
1
1
1
1
1
1
1
1
1
1
1
1
1
1
1
1
1
1
1
1
1
1
1
1
1
1
1
1
1
1
1
1
1
1
1
1
1
1
1
1
1
1
1
1
1
1
1
1
1
1
1
1
1
1
1
1
1
1
1
1
1
1
1
1
1
1
1
1
1
1
1
1
1
1
1

SCALARS density double 1
LOOKUP_TABLE default
0.999993
0.999962
0.999989
0.999999
0.999972
0.999979
1.00001
0.999991
0.999973
1.00001
1.00002
0.999961
0.999994
1.00005
0.999982
0.999959
1.00003
1.00002
0.999967
0.999994
1.00003
0.999996
0.99998
1.00001
1.00001
0.999985
0.999989
1.00002
1
0.999972
1.00001
1.00003
0.999975
0.999972
1.00004
1.00001
0.999956
1.00001
1.00004
0.999981
0.999985
1.00003
1.00001
0.999993
1.00002
1.00003
1
1.00001
1.00004
1.00001
0.999958
0.999988
0.999991
0.999975
0.99998
0.999981
0.99999
0.999995
0.999975
0.999986
1.00002
0.999996
0.999971
1.00002
1.00002
0.999972
0.999997
1.00003
0.999988
0.999987
1.00001
0.999999
0.999987
1.00001
1.00001
0.999991
0.999993
1.00001
1
0.999986
1.00001
1.00001
0.999977
1
1.00002
0.999981
0.999987
1.00002
1
0.999986
1.00001
1.00002
1.00001
1.00001
1.00002
1.00002
1.00003
1.00001
1.00001
1.00004
0.999971
0.999986
0.999961
0.999949
0.999986
0.999987
0.99994
0.999979
1.00003
0.999957
0.999954
1.00003
1.00001
0.999949
1
1.00004
0.999976
0.999965
1.00003
1.00002
0.999954
0.999998
1.00005
0.999977
0.999959
1.00004
1.00002
0.999953
1
1.00005
0.999981
0.999964
1.00003
1.00002
0.999957
0.999997
1.00005
0.999991
0.999968
1.00004
1.00004
0.999975
1.00002
1.00006
1.00001
1.00001
1.00005
1.00004
1.00001
1.00002
0.999957
0.999939
0.999937
0.999941
0.999949
0.999953
0.99995
0.999949
0.999956
0.999977
0.999974
0.99997
0.999993
0.999997
0.999987
0.999995
1.00001
0.999992
0.999992
1.00001
0.999995
0.999988
1.00001
1
0.999988
1.00001
0.999999
0.999987
1.00001
1
0.999989
1.00001
1
0.999991
1.00001
1.00001
0.999998
1.00001
1.00003
1.00002
1.00002
1.00004
1.00004
1.00004
1.00005
1.00005
1.00005
1.00006
1.00006
1.00004
0.999906
0.999881
0.999903
0.999929
0.99987
0.999881
0.999957
0.999912
0.999884
0.999957
0.999971
0.999926
0.999955
1.00002
0.999981
0.999948
1.00002
1.00003
0.999956
0.999976
1.00006
0.999999
0.999944
1.00002
1.00004
0.999958
0.999974
1.00005
1
0.999943
1.00002
1.00004
0.999967
0.999977
1.00005
1.00002
0.999976
1.00004
1.00007
1.00002
1.00004
1.0001
1.00008
1.00003
1.0001
1.00011
1.00006
1.00008
1.0001
1.00008
0.999834
0.999813
0.999802
0.999808
0.999825
0.999816
0.999806
0.999852
0.999865
0.999856
0.999886
0.999911
0.999932
0.999935
0.999959
0.999985
0.999973
0.999986
1.00001
0.999996
0.999982
1
1.00001
0.999989
0.999992
1.00001
1.00001
0.999985
0.999996
1.00002
0.999998
0.999987
1.00001
1.00002
1.00001
1.00003
1.00006
1.00005
1.00007
1.0001
1.00012
1.00011
1.00012
1.00016
1.00015
1.00014
1.00016
1.00016
1.00015
1.00013
0.999672
0.999709
0.999656
0.999611
0.999692
0.999683
0.999649
0.999707
0.999743
0.999739
0.999761
0.99984
0.999855
0.999841
0.999919
0.999973
0.999937
0.999936
1.00002
1.00001
0.999949
0.999998
1.00004
0.999979
0.999961
1.00003
1.00002
0.999962
0.999993
1.00005
0.999991
0.999972
1.00005
1.00005
1.00002
1.00006
1.00014
1.00012
1.00013
1.0002
1.00021
1.0002
1.00023
1.00028
1.00025
1.00024
1.00031
1.00027
1.00023
1.00026
0.999481
0.999459
0.99944
0.999436
0.999404
0.999434
0.999472
0.999472
0.999514
0.999561
0.999608
0.999644
0.99969
0.999782
0.999803
0.999835
0.999911
0.99996
0.999933
0.999953
1.00002
0.999993
0.999955
1.00002
1.00004
0.999957
0.99998
1.00004
1
0.999967
1.00004
1.00006
1.00002
1.00007
1.00014
1.00016
1.00017
1.00025
1.00029
1.0003
1.00034
1.00038
1.00041
1.00039
1.00043
1.00046
1.00042
1.00042
1.00042
1.00039
0.999253
0.999091
0.999101
0.999149
0.999085
0.999101
0.999155
0.999175
0.999189
0.999283
0.999346
0.999366
0.999463
0.999566
0.999639
0.999677
0.999784
0.999868
0.999872
0.999915
0.999985
0.999986
0.999951
1
1.00002
0.999973
0.999984
1.00004
1.00001
1
1.00006
1.0001
1.0001
1.00017
1.00026
1.00029
1.00034
1.00041
1.00049
1.00049
1.00053
1.0006
1.00061
1.00061
1.00066
1.00067
1.00062
1.00065
1.00067
1.00055
0.998813
0.998772
0.998752
0.998731
0.998732
0.998749
0.998768
0.998797
0.998865
0.998896
0.998937
0.9991
0.999148
0.999198
0.999357
0.999505
0.999549
0.999635
0.999821
0.999859
0.999838
0.999945
1.00002
0.999954
0.999939
1.00005
1.00003
0.999966
1.00003
1.00013
1.00011
1.00013
1.00029
1.00036
1.00038
1.00049
1.00061
1.00064
1.00065
1.00077
1.0008
1.0008
1.00085
1.00087
1.00088
1.00088
1.00091
1.00088
1.00086
1.00086
0.998381
0.998475
0.998408
0.998371
0.998432
0.998462
0.998425
0.998451
0.998545
0.998551
0.998592
0.99868
0.998787
0.998862
0.998966
0.999153
0.999263
0.999405
0.999557
0.999696
0.999773
0.999844
0.99994
0.999939
0.999979
0.999999
1.00004
1.00003
1.00011
1.00017
1.00023
1.00034
1.00045
1.00056
1.00063
1.00076
1.00082
1.00086
1.00093
1.00097
1.00101
1.001
1.00106
1.00109
1.00106
1.00107
1.00113
1.0011
1.00106
1.00113
0.998123
0.998149
0.998143
0.998217
0.998253
0.998206
0.998295
0.998284
0.998256
0.998337
0.998376
0.998337
0.998429
0.998547
0.998609
0.998658
0.998927
0.999085
0.999179
0.999389
0.999624
0.999709
0.999736
0.999936
0.999987
0.999978
1.00002
1.00021
1.00021
1.00027
1.00046
1.00063
1.00067
1.00077
1.00098
1.00098
1.00101
1.00109
1.00115
1.0011
1.00112
1.0012
1.00118
1.00115
1.00125
1.00121
1.00123
1.00127
1.00131
1.00129
0.997917
0.997956
0.998084
0.998167
0.998168
0.998131
0.998293
0.998265
0.998232
0.998237
0.998278
0.998274
0.998222
0.998292
0.998316
0.998405
0.998478
0.998653
0.99885
0.999027
0.999256
0.999452
0.999645
0.999776
0.99991
1.00002
1.00014
1.00024
1.00041
1.00055
1.00072
1.00083
1.00097
1.00109
1.0011
1.00117
1.00117
1.00122
1.00118
1.00119
1.00123
1.00123
1.00124
1.00121
1.00134
1.00132
1.00132
1.00134
1.00146
1.00146
0.997822
0.998004
0.99811
0.998038
0.998195
0.998248
0.998251
0.998222
0.998363
0.998328
0.99827
0.998318
0.998322
0.998177
0.998224
0.998273
0.998208
0.998275
0.998493
0.998688
0.998802
0.999112
0.999452
0.999562
0.999791
1.00007
1.00029
1.00036
1.00063
1.00089
1.00093
1.00107
1.00122
1.00126
1.00118
1.00122
1.00129
1.00117
1.0012
1.00127
1.00124
1.00122
1.00135
1.00135
1.00133
1.00135
1.0015
1.00142
1.00146
1.00157
0.997924
0.99803
0.998064
0.997965
0.998131
0.998131
0.99817
0.998175
0.998315
0.998341
0.998318
0.998353
0.998372
0.998371
0.998259
0.998181
0.998221
0.998146
0.998159
0.998285
0.998506
0.998748
0.998981
0.999422
0.999705
1.00006
1.00032
1.0007
1.00088
1.00104
1.00122
1.00129
1.0013
1.00122
1.0013
1.00126
1.00118
1.00124
1.00128
1.00132
1.00133
1.00137
1.00146
1.00146
1.00151
1.00148
1.00159
1.00153
1.00154
1.00157
0.998089
0.997925
0.997985
0.998021
0.998008
0.997894
0.99808
0.998139
0.998034
0.998148
0.998344
0.998311
0.998305
0.998481
0.998406
0.998309
0.998261
0.998265
0.998067
0.998078
0.9983
0.9984
0.99869
0.999122
0.99966
0.999949
1.00045
1.00084
1.0011
1.00116
1.00134
1.00138
1.00122
1.00127
1.00127
1.00124
1.00121
1.00138
1.00141
1.00136
1.00152
1.00162
1.00152
1.00154
1.00171
1.00163
1.00159
1.00162
1.0017
1.00156
0.998116
0.998054
0.998089
0.998026
0.99806
0.997963
0.998005
0.997986
0.997992
0.998002
0.998093
0.998177
0.998244
0.998274
0.998467
0.998448
0.998399
0.998283
0.998308
0.998176
0.998066
0.998295
0.998596
0.998925
0.999357
1.00005
1.00047
1.0008
1.00108
1.00135
1.00128
1.00121
1.0013
1.00125
1.00126
1.00127
1.00147
1.00148
1.00152
1.0016
1.00164
1.00163
1.00167
1.00165
1.00166
1.00161
1.00167
1.0016
1.00165
1.00164
0.998154
0.998274
0.998254
0.998031
0.998212
0.998211
0.998046
0.997942
0.998113
0.998013
0.997846
0.998
0.998134
0.998109
0.998171
0.998456
0.99843
0.998404
0.998424
0.998395
0.998252
0.998332
0.99859
0.998879
0.999311
0.999887
1.00037
1.00068
1.00102
1.00117
1.00117
1.0012
1.0013
1.00133
1.00132
1.00157
1.00161
1.00157
1.00166
1.00179
1.00167
1.00158
1.00174
1.0017
1.00157
1.00158
1.00176
1.00157
1.00157
1.00167
0.99833
0.99819
0.998263
0.998224
0.998268
0.998159
0.998233
0.998169
0.998091
0.998084
0.998033
0.997962
0.997927
0.998022
0.998077
0.998111
0.998378
0.99853
0.998474
0.998566
0.998732
0.998647
0.998697
0.999019
0.999456
0.999607
1.00008
1.00054
1.00072
1.00079
1.00105
1.00127
1.00123
1.00139
1.00164
1.00163
1.00166
1.00175
1.00173
1.00166
1.00166
1.00172
1.00163
1.00161
1.00172
1.00163
1.00165
1.00164
1.00172
1.00159
0.998302
0.998002
0.998125
0.998159
0.998124
0.997955
0.998211
0.998255
0.998094
0.998088
0.998227
0.998079
0.99787
0.997983
0.998033
0.997928
0.998109
0.998378
0.998607
0.998707
0.99897
0.999133
0.999126
0.999337
0.999357
0.999646
0.999758
1.0001
1.00031
1.00061
1.00098
1.00113
1.00139
1.00161
1.00176
1.00168
1.0017
1.00182
1.00168
1.00159
1.0017
1.00174
1.00161
1.00165
1.00184
1.00173
1.0017
1.00173
1.00185
1.00164
0.997973
0.998
0.998036
0.997759
0.998004
0.998038
0.997941
0.998
0.998167
0.998174
0.99805
0.998217
0.998186
0.997977
0.997922
0.998077
0.99797
0.998153
0.998532
0.998962
0.999097
0.999455
0.999798
0.999533
0.999521
0.999543
0.999651
0.999525
0.999983
1.0005
1.00071
1.00114
1.00153
1.00172
1.00161
1.00177
1.00179
1.00159
1.0016
1.00179
1.00167
1.00164
1.0018
1.00184
1.00171
1.00174
1.00197
1.00174
1.00177
1.00186
0.997813
0.997928
0.998019
0.997745
0.998011
0.998026
0.997913
0.99788
0.998076
0.998146
0.997994
0.998137
0.998279
0.998153
0.998039
0.998083
0.998214
0.998126
0.998497
0.998942
0.999431
0.99975
0.999917
0.999997
0.999748
0.99952
0.999294
0.999475
0.999708
1.0001
1.00064
1.0011
1.00149
1.00146
1.00164
1.00171
1.00164
1.00159
1.0017
1.00181
1.00169
1.00173
1.00186
1.00183
1.00175
1.00175
1.00194
1.00176
1.00183
1.0019
0.997947
0.997595
0.997902
0.998001
0.99796
0.99768
0.998004
0.997974
0.99771
0.997851
0.998109
0.997974
0.997956
0.998258
0.998291
0.998092
0.998196
0.998541
0.998554
0.998921
0.999554
0.999902
0.999983
1.00015
1.00004
0.999474
0.999321
0.999461
0.999584
0.999875
1.00054
1.001
1.00107
1.00147
1.00166
1.00154
1.00156
1.00186
1.00184
1.00167
1.00189
1.00203
1.00178
1.00176
1.00207
1.00186
1.00177
1.00188
1.00211
1.00178
0.997835
0.997619
0.997894
0.997841
0.997899
0.997692
0.997911
0.997952
0.997816
0.997808
0.997938
0.998024
0.997902
0.998087
0.998333
0.998364
0.998451
0.998707
0.999008
0.999191
0.99949
0.999908
1.00016
1.00005
0.999887
0.999815
0.999603
0.999388
0.999508
0.999921
1.00022
1.00049
1.00092
1.00124
1.00139
1.00149
1.00173
1.00185
1.00174
1.00184
1.00191
1.00189
1.00182
1.00187
1.00199
1.00189
1.00193
1.00188
1.00204
1.0019
0.997591
0.997959
0.997988
0.997505
0.997918
0.998075
0.997849
0.997803
0.998151
0.998043
0.997702
0.997961
0.998124
0.997933
0.998058
0.998597
0.998795
0.998822
0.999322
0.999648
0.999606
0.99974
1
0.999987
0.999832
1.00001
0.999814
0.999594
0.999716
0.999807
0.999818
1.00017
1.00077
1.00094
1.00115
1.00169
1.00185
1.00166
1.00181
1.00206
1.00178
1.00167
1.00199
1.00196
1.00171
1.00186
1.00218
1.00182
1.00177
1.0021
0.997966
0.997781
0.997944
0.997754
0.997962
0.997869
0.998005
0.997852
0.997887
0.99801
0.997937
0.997832
0.997922
0.99811
0.998115
0.998384
0.99894
0.999346
0.999478
0.999799
0.999909
0.999741
0.999639
0.999773
1.00007
0.999875
1.00003
1.00009
0.999843
0.999588
0.999677
1.00007
1.00024
1.00071
1.00133
1.0016
1.00163
1.00188
1.00197
1.00187
1.00186
1.00202
1.00198
1.00187
1.00202
1.00193
1.00198
1.00192
1.00205
1.00182
0.998154
0.997483
0.997858
0.998087
0.997837
0.99742
0.997917
0.997978
0.997535
0.99775
0.998131
0.997955
0.997726
0.998211
0.99845
0.998446
0.998986
0.999671
0.99992
0.999818
1.00005
0.999884
0.99949
0.999657
0.999834
1.00011
1.00021
1.0003
0.999861
0.999563
0.99974
0.999662
0.999919
1.00061
1.0012
1.00127
1.00155
1.00203
1.00186
1.00172
1.00207
1.00226
1.00188
1.00196
1.00236
1.00208
1.00181
1.00203
1.00232
1.00181
0.997697
0.997774
0.997918
0.997501
0.997775
0.997795
0.997641
0.997646
0.997861
0.997814
0.997726
0.99801
0.998127
0.998054
0.998429
0.998904
0.99914
0.999528
1.00003
1.00022
0.999771
0.999717
0.999757
0.999512
0.999748
1.00014
1.00043
1.00015
1.0001
1.00002
0.999463
0.999549
1.00005
1.00048
1.00073
1.00128
1.00174
1.00168
1.0018
1.00212
1.002
1.00191
1.00216
1.0022
1.00197
1.00208
1.00238
1.002
1.00205
1.00227
0.997628
0.998064
0.997947
0.99732
0.997899
0.998103
0.997727
0.997538
0.998061
0.998028
0.997519
0.997867
0.998286
0.998267
0.998345
0.999116
0.999564
0.999583
0.999967
1.00013
0.999948
0.999656
0.999691
0.99974
0.999715
1.00015
1.00022
1.00028
1.00029
0.999928
0.999654
0.999669
1
1.00005
1.00054
1.00135
1.00149
1.00154
1.00196
1.00229
1.00187
1.00187
1.00227
1.00215
1.00182
1.00201
1.00245
1.00205
1.0019
1.00228
0.997976
0.997324
0.997547
0.997952
0.997711
0.997385
0.997886
0.997887
0.997404
0.997626
0.997878
0.997703
0.997762
0.998468
0.998862
0.999008
0.999632
1.00005
0.99981
0.99979
0.999954
0.999844
0.999597
0.999821
1.0001
0.999859
1.00009
1.0004
1.00022
0.999993
1.00005
0.999974
0.999601
0.999968
1.00067
1.00083
1.00121
1.00196
1.00211
1.0019
1.00222
1.00253
1.00203
1.00202
1.00253
1.00225
1.0019
1.0024
1.0026
1.00199
0.99778
0.997181
0.997624
0.997823
0.997685
0.997297
0.99777
0.997886
0.997548
0.997557
0.997981
0.998055
0.997941
0.99854
0.999148
0.999469
0.999645
0.999998
0.999966
0.99961
0.999657
0.999816
0.999903
0.999932
0.999963
0.999987
1.00005
1.00014
1.00024
1.00037
1.00035
0.999878
0.999762
1.00007
1.00022
1.00052
1.00117
1.00178
1.00173
1.00189
1.00226
1.0023
1.00207
1.0022
1.00252
1.00229
1.00217
1.00228
1.00262
1.00224
0.99699
0.998027
0.997879
0.996939
0.997667
0.998071
0.997337
0.997291
0.998095
0.997988
0.997399
0.99811
0.998695
0.998498
0.998912
0.999851
0.999959
0.999534
0.999772
0.999775
0.999416
0.999678
1.00014
1.00006
0.999891
1.00008
1
0.999883
1.00032
1.00066
1.00027
1.00014
1.00029
0.999847
0.999826
1.00074
1.00131
1.00114
1.0017
1.00251
1.00197
1.0018
1.00259
1.00262
1.00188
1.00231
1.00297
1.00215
1.00189
1.00289
0.997534
0.99763
0.997505
0.997219
0.99753
0.997567
0.997478
0.997392
0.997613
0.997802
0.997681
0.997862
0.998465
0.998881
0.999162
0.999631
0.999949
0.999818
0.999486
0.999555
0.999625
0.999716
0.999968
1.00016
1.00016
0.99989
0.999855
1.00008
1.00035
1.00044
1.00049
1.00057
1.00012
0.999794
1.00011
1.00059
1.00086
1.00138
1.00202
1.00218
1.00212
1.00235
1.00246
1.00241
1.00244
1.00247
1.00259
1.00256
1.00243
1.00231
0.998092
0.996733
0.997232
0.998303
0.997559
0.996734
0.997928
0.998228
0.997081
0.997406
0.998377
0.99832
0.998061
0.999321
1.00005
0.999649
0.999764
0.999993
0.999674
0.999263
0.999749
0.999928
0.999803
1.00013
1.00018
0.999927
0.999876
1.00023
1.00021
1.00034
1.00085
1.00049
0.999979
1.00006
1.00023
0.999835
1.00043
1.00175
1.00164
1.00151
1.00245
1.00286
1.00182
1.00206
1.00315
1.00251
1.00175
1.00274
1.00321
1.00201
0.997201
0.997467
0.997677
0.997286
0.997502
0.997616
0.997405
0.997464
0.997655
0.997472
0.997648
0.998349
0.998772
0.999002
0.999738
1.00006
0.999671
0.999421
0.999508
0.999559
0.999397
0.999766
1.00001
0.99985
0.999926
1.00011
1.00022
1.00005
1.00025
1.00074
1.00065
1.00058
1.00063
1.00039
0.999893
1.00014
1.00092
1.00114
1.00149
1.00225
1.00244
1.00226
1.00258
1.00274
1.0023
1.00257
1.00287
1.00238
1.00245
1.00302
0.996832
0.99839
0.997841
0.996454
0.997553
0.998389
0.997115
0.996753
0.998125
0.998174
0.99732
0.998343
0.999455
0.999419
0.999312
1.00016
0.99994
0.999269
0.999501
0.999752
0.999711
0.999734
1.00001
0.999918
0.999814
1.00018
1.00019
1.00009
1.00039
1.00045
1.00039
1.00061
1.00091
1.00024
0.999852
1.00063
1.00064
1.00049
1.00149
1.00257
1.00188
1.00187
1.00314
1.00293
1.0018
1.0025
1.00347
1.00238
1.00182
1.00315
0.998089
0.996936
0.996983
0.998046
0.997334
0.996853
0.997643
0.997793
0.997016
0.997709
0.998586
0.998341
0.998694
0.999718
1.0001
0.999457
0.999629
0.999828
0.999474
0.999531
0.999848
0.999881
0.999572
0.999794
1.00013
0.999963
1.0002
1.00053
1.00034
1.00028
1.00057
1.00081
1.00044
1.00047
1.00071
1.00009
1.00023
1.00126
1.0017
1.0014
1.00225
1.00311
1.00225
1.00235
1.00333
1.00282
1.00193
1.0032
1.00335
1.00205
0.99803
0.996278
0.997249
0.998342
0.997394
0.996377
0.997752
0.998149
0.99695
0.997319
0.998798
0.998826
0.998522
0.999703
1.00019
0.999557
0.999255
0.999785
0.999684
0.999374
0.99975
0.999816
0.999593
0.999697
0.999917
1.0001
1.00037
1.00054
1.00035
1.00038
1.00081
1.0006
1.00047
1.00098
1.00075
0.999987
1.00032
1.00148
1.00129
1.00126
1.00262
1.00305
1.00206
1.00241
1.00356
1.00282
1.00203
1.00289
1.00375
1.00248
0.995941
0.998393
0.997754
0.995947
0.997274
0.998376
0.996728
0.996649
0.998207
0.998168
0.99731
0.9989
1.00014
0.999565
0.999535
1.00001
0.999855
0.999244
0.999707
0.999973
0.999574
0.999617
0.999838
0.999729
0.99978
1.00022
1.00041
1.0003
1.00049
1.0007
1.00031
1.00048
1.0011
1.00065
1.00025
1.00063
1.00078
1.00012
1.00111
1.0028
1.00203
1.00172
1.00341
1.00351
1.00172
1.00289
1.00434
1.00251
1.00175
1.00435
0.997122
0.997989
0.997306
0.99642
0.997369
0.998015
0.997138
0.99677
0.9979
0.998148
0.997825
0.99861
0.999914
0.999888
0.999384
0.999683
0.999634
0.999468
0.999522
0.999755
0.999734
0.999512
0.999609
0.999799
0.999941
1.00011
1.00025
1.00047
1.00067
1.00047
1.00042
1.00075
1.00095
1.00074
1.00067
1.00099
1.00052
1.00036
1.00154
1.0023
1.00202
1.00228
1.00326
1.00301
1.00237
1.00296
1.00356
1.00319
1.00261
1.0029
0.99879
0.995341
0.996296
0.999205
0.997105
0.99539
0.998027
0.998575
0.996368
0.99731
0.999342
0.999088
0.998597
1.00018
1.00052
0.999205
0.99937
1.00006
0.999742
0.999341
0.999793
0.999778
0.999368
0.999783
1.0002
1.00002
1.00028
1.00076
1.00045
1.00037
1.00087
1.00069
1.0003
1.00094
1.00139
1.00011
1.00009
1.00171
1.00141
1.00077
1.0027
1.00393
1.00172
1.00203
1.00487
1.00334
1.00113
1.00404
1.00505
1.0017
0.996602
0.996534
0.997391
0.997129
0.99685
0.997118
0.997115
0.99761
0.997524
0.997645
0.998499
0.999123
0.999593
0.99972
0.99997
0.999833
0.999577
0.99966
0.999616
0.999589
0.99955
0.999485
0.999571
0.999772
0.999955
1.00014
1.00041
1.00052
1.00055
1.00063
1.0007
1.00063
1.00067
1.00097
1.00083
1.00063
1.00087
1.00098
1.00123
1.00181
1.00262
1.00265
1.00268
1.00331
1.00304
1.00342
1.00359
1.00294
1.00351
1.00432
0.994968
0.99982
0.998067
0.994089
0.997298
0.999358
0.996289
0.995737
0.998926
0.998889
0.997112
0.999012
1.00062
0.999649
0.999183
1.00021
1.00011
0.999063
0.999443
0.99992
0.999479
0.999318
0.999693
0.999821
0.99991
1.0003
1.00042
1.00042
1.00076
1.00078
1.00026
1.00065
1.00138
1.00063
1.00034
1.00145
1.00128
0.999996
1.00124
1.00337
1.00174
1.00118
1.00441
1.0043
1.00111
1.00298
1.00625
1.00266
1.00095
1.00544
0.998665
0.996028
0.996054
0.998136
0.996816
0.996163
0.997219
0.99785
0.996959
0.997791
0.999045
0.999092
0.999363
0.999934
1.00018
0.999655
0.999596
0.999843
0.999524
0.999326
0.999491
0.999578
0.999563
0.999853
1.00016
1.00023
1.00036
1.00058
1.00056
1.00054
1.00075
1.00078
1.00057
1.00086
1.0011
1.00075
1.00077
1.00134
1.00169
1.00146
1.00251
1.00351
1.00257
1.00291
1.00431
1.00385
1.00209
1.0048
1.00509
1.00167
0.998856
0.993451
0.996031
0.999969
0.996779
0.994213
0.998264
0.99883
0.996322
0.997345
0.999976
0.99965
0.998779
1.00031
1.00076
0.999528
0.999424
0.999953
0.999501
0.999025
0.999481
0.999628
0.999401
0.99981
1.00022
1.00023
1.0005
1.00077
1.00038
1.00044
1.00108
1.0008
1.00029
1.00105
1.00154
1.00036
1.00048
1.00223
1.00153
1.00056
1.00298
1.00441
1.00173
1.00186
1.00612
1.00412
1.00085
1.00464
1.00703
1.00254
0.99364
0.999341
0.998065
0.993888
0.996678
0.9992
0.995918
0.995701
0.998349
0.9987
0.997733
0.999092
1.00074
0.99985
0.999451
1.00005
0.999925
0.999172
0.999181
0.999497
0.99925
0.999276
0.99976
0.999944
1.00005
1.00047
1.00066
1.0005
1.00064
1.00071
1.00053
1.00083
1.00117
1.00073
1.00058
1.0014
1.00147
1.00048
1.00168
1.00318
1.00217
1.00178
1.00448
1.00479
1.00137
1.00375
1.00724
1.00267
1.00131
1.00827
0.995892
1.00035
0.997
0.9932
0.997209
0.998985
0.996056
0.995993
0.998662
0.998694
0.997896
0.999675
1.00089
1.00009
0.999813
1.00038
1.00005
0.999239
0.999329
0.9993
0.999013
0.999369
0.999979
0.999995
1.00009
1.00055
1.00057
1.00029
1.00058
1.00078
1.00043
1.00061
1.00119
1.00068
1.00039
1.0014
1.00159
1.00046
1.00139
1.00336
1.00232
1.00158
1.00438
1.00484
1.00165
1.00316
1.00746
1.00408
1.00177
1.0052
1.00083
0.988959
0.993829
1.00147
0.996402
0.993135
0.997605
0.999227
0.99599
0.996824
1.00017
0.99995
0.999127
1.00044
1.00094
0.999387
0.998943
0.999664
0.999218
0.998579
0.999035
0.999608
0.999704
1.00006
1.00046
1.00051
1.00072
1.00081
1.00038
1.00052
1.00122
1.00092
1.00031
1.00118
1.00158
1.00037
1.00075
1.00261
1.00198
1.00068
1.0036
1.00506
1.00144
1.0022
1.00746
1.0048
0.999207
1.00729
1.01163
0.998771
0.994242
0.993839
0.996778
0.998005
0.99568
0.996188
0.997567
0.997411
0.996844
0.998361
0.999458
0.999701
1.00028
1.00102
1.00063
0.999769
0.999652
0.999544
0.998896
0.998791
0.99917
0.999396
0.999639
1.00027
1.00055
1.00041
1.00046
1.0007
1.00045
1.00035
1.00084
1.00098
1.00048
1.00072
1.00123
1.00082
1.00069
1.00191
1.00235
1.00173
1.00244
1.00423
1.00316
1.00261
1.00447
1.00574
1.00248
1.00434
1.00807
1.00888
0.992847
1.00735
0.997337
0.990079
0.997396
1.00032
0.995296
0.994781
0.999359
0.998795
0.997208
0.999528
1.00168
1.00052
0.999908
1.00068
0.999862
0.998501
0.998588
0.998964
0.998646
0.999104
1.00008
1.00033
1.00048
1.00099
1.00071
1.00031
1.00078
1.00083
1.00012
1.00073
1.0016
1.00056
0.999986
1.00186
1.00183
0.999937
1.00189
1.00479
1.00203
1.00065
1.00632
1.006
0.998823
1.00417
1.01231
1.00138
0.995803
1.02317

VECTORS velocity double
2.56578e-006 3.32193e-006 0
9.78411e-007 2.71397e-006 0
-7.07535e-007 3.12766e-006 0
-1.92684e-006 2.21851e-006 0
2.70969e-006 -8.83572e-007 0
-3.69815e-007 4.45572e-006 0
-1.70206e-006 2.34417e-006 0
2.4881e-006 -2.94339e-007 0
7.21783e-006 4.31745e-006 0
1.50953e-007 1.74871e-006 0
1.80018e-006 -5.96136e-006 0
9.23402e-006 3.525e-006 0
2.53277e-006 4.41865e-006 0
-2.01613e-006 -2.9373e-006 0
7.45589e-006 -3.61909e-006 0
4.86013e-006 4.56283e-006 0
2.84658e-008 2.46406e-006 0
7.48998e-006 -2.16419e-006 0
8.2853e-006 -2.85747e-006 0
3.8611e-006 2.69978e-006 0
6.79e-006 -1.14956e-006 0
6.45712e-006 -3.0249e-006 0
3.99629e-006 -2.92492e-007 0
5.41661e-006 1.36039e-006 0
4.2883e-006 -1.75341e-006 0
4.36495e-006 1.4603e-006 0
5.84899e-006 -5.58099e-007 0
4.62498e-006 1.91178e-007 0
6.70558e-006 2.39597e-006 0
7.44957e-006 1.49812e-006 0
4.96148e-006 -2.56563e-006 0
8.60054e-006 2.17384e-006 0
7.50433e-006 1.94274e-006 0
7.09764e-007 -2.56306e-006 0
4.72684e-006 -4.48225e-006 0
6.45347e-006 3.57956e-006 0
-2.17301e-006 2.34806e-006 0
2.04139e-006 -4.4913e-006 0
7.71114e-006 -2.70309e-006 0
7.4776e-007 5.76533e-006 0
-2.15658e-007 -1.98898e-006 0
6.21489e-006 -3.78323e-006 0
1.59825e-006 8.206e-007 0
-2.14918e-006 -2.3976e-006 0
-1.00477e-006 -4.44046e-006 0
2.27976e-006 1.50656e-006 0
-2.2061e-006 -2.04645e-006 0
-1.35655e-006 -2.65583e-006 0
8.97577e-007 -2.34829e-006 0
2.59934e-006 -2.82296e-006 0
-3.92933e-007 9.90706e-006 0
-5.34723e-006 6.66093e-006 0
1.0786e-007 1.25648e-005 0
-6.37943e-007 5.00168e-006 0
-3.51868e-006 3.03779e-006 0
-2.77756e-006 1.85103e-005 0
-2.27039e-006 5.30731e-006 0
-5.84101e-006 -1.67845e-006 0
1.665e-006 1.2409e-005 0
2.90601e-006 1.23166e-005 0
-4.47753e-006 -8.92195e-006 0
-1.69769e-006 4.21801e-007 0
8.99661e-006 1.08593e-005 0
1.74071e-006 -2.51873e-006 0
-3.2071e-006 -7.20189e-006 0
4.39327e-006 6.99225e-006 0
3.23325e-006 1.78369e-007 0
-2.21404e-006 -1.54248e-006 0
2.66035e-006 2.1807e-006 0
2.60548e-006 1.33436e-006 0
-4.26182e-007 -2.27204e-006 0
3.04864e-006 2.68338e-006 0
4.26316e-006 3.76776e-008 0
2.20567e-006 -4.21609e-007 0
4.27143e-006 -9.69881e-007 0
3.47868e-006 1.54288e-006 0
1.63247e-006 6.0081e-007 0
4.60952e-006 2.96538e-009 0
2.35138e-006 -1.86495e-006 0
-1.44008e-006 2.52914e-006 0
2.62562e-006 -1.87793e-006 0
2.67424e-006 -1.60512e-006 0
-2.5464e-006 2.05003e-006 0
3.11332e-006 -8.94967e-007 0
4.76859e-006 -6.25555e-006 0
-2.23219e-006 7.72262e-006 0
2.45431e-006 1.80228e-006 0
8.79773e-006 -9.95929e-006 0
-8.28911e-007 1.20509e-006 0
-2.75825e-006 7.90912e-006 0
3.32793e-006 -1.15836e-005 0
1.66145e-006 -1.07633e-005 0
-4.27634e-006 1.38216e-006 0
-1.50264e-006 -5.1674e-006 0
-2.25682e-006 -1.75621e-005 0
-3.32298e-006 -2.8312e-006 0
6.46241e-007 -4.57273e-006 0
5.08871e-007 -1.16011e-005 0
-4.37087e-006 -6.1949e-006 0
-1.39001e-007 -8.58414e-006 0
5.41973e-007 1.70054e-005 0
2.08583e-007 1.57562e-005 0
7.69187e-007 1.76249e-005 0
-5.30886e-006 2.02485e-005 0
-8.54824e-006 1.45659e-005 0
-9.3922e-006 1.3671e-005 0
3.03743e-006 2.08448e-005 0
-7.75957e-006 1.45203e-005 0
-1.80265e-005 -2.69823e-007 0
-1.27824e-006 1.75047e-005 0
6.69081e-007 1.21774e-005 0
-1.74088e-005 -4.67281e-006 0
-9.47737e-006 3.83457e-006 0
3.30247e-006 8.57502e-006 0
-5.89132e-006 -4.21209e-006 0
-1.14522e-005 7.78637e-008 0
7.70204e-007 1.9891e-006 0
-1.29099e-006 -1.08191e-006 0
-1.0267e-005 9.94556e-007 0
-5.16947e-006 -6.35445e-007 0
-2.13686e-006 -3.49117e-007 0
-1.04684e-005 3.74242e-006 0
-8.17806e-006 -3.16115e-006 0
-3.08539e-006 5.57287e-007 0
-9.65796e-006 4.02505e-006 0
-9.61523e-006 -3.01842e-006 0
-3.07419e-006 -1.81297e-006 0
-8.55374e-006 3.40409e-006 0
-1.08291e-005 -2.01765e-006 0
-2.31837e-006 -3.60239e-008 0
-5.60768e-006 8.40796e-007 0
-1.0704e-005 8.00994e-007 0
-1.18836e-006 1.49384e-006 0
6.08689e-007 -1.61756e-006 0