# vtk DataFile Version 4.0
SiwiRVisFile
ASCII
DATASET STRUCTURED_POINTS
DIMENSIONS 5 5 1
ORIGIN 0 0 0
SPACING 1 1 1
POINT_DATA 25

SCALARS flags double 1
LOOKUP_TABLE default
1
1
1
1
1
1
1
1
1
1
1
1
1
1
1
1
1
1
1
1
1
1
1
1
1

SCALARS density double 1
LOOKUP_TABLE default
0.984794
1.03843
0.999906
0.961437
1.01636
0.988351
1.03304
1.00031
0.967732
1.0105
1.02256
0.947792
0.999039
1.05171
0.976619
1.00324
0.984877
0.99809
1.0128
0.997554
0.974954
1.06095
0.998662
0.938861
1.03144

VECTORS velocity double
-0.00143376 0.00195353 0
-0.00227759 -0.00203815 0
0.00184036 -0.00101291 0
-0.00112671 0.0024105 0
-0.00127933 -0.00241368 0
0.00014806 0.00439191 0
-0.00792632 -4.27807e-005 0
-0.014722 -0.000131859 0
-0.00787241 -0.000183773 0
0.000848043 -0.00267001 0
-0.00150868 0.00599206 0
-0.0138167 0.0196602 0
-0.0226963 -0.00061365 0
-0.0135953 -0.0212229 0
-0.00246547 -0.00590788 0
-0.00540818 0.0168506 0
-0.00898068 0.0202718 0
-0.00354497 -0.000396267 0
-0.00868134 -0.0205739 0
-0.00796799 -0.0164053 0
0.0225035 0.0148829 0
0.0472909 0.00533297 0
0.0510847 -0.000235305 0
0.0484671 -0.00359958 0
0.0160828 -0.0120776 0
