# vtk DataFile Version 4.0
SiwiRVisFile
ASCII
DATASET STRUCTURED_POINTS
DIMENSIONS 5 5 1
ORIGIN 0 0 0
SPACING 1 1 1
POINT_DATA 25

SCALARS flags double 1
LOOKUP_TABLE default
1
1
1
1
1
1
1
1
1
1
1
1
1
1
1
1
1
1
1
1
1
1
1
1
1

SCALARS density double 1
LOOKUP_TABLE default
0.983565
1.03741
1.00011
0.96286
1.01783
0.986609
1.03265
1.00066
0.968449
1.01251
1.02031
0.945941
0.999112
1.05345
0.978889
1.0013
0.984206
0.997875
1.01344
0.99886
0.973332
1.05949
0.998446
0.940121
1.03257

VECTORS velocity double
-0.00146164 0.00192688 0
-0.00233204 -0.00202238 0
0.0018327 -0.00110045 0
-0.00106607 0.00234559 0
-0.00131415 -0.00237088 0
0.000274274 0.00446551 0
-0.00784103 0.000241144 0
-0.0149171 -0.000228166 0
-0.0078816 -0.000397066 0
0.000930882 -0.00259901 0
-0.00152063 0.0061407 0
-0.0132976 0.0200016 0
-0.0218677 -0.000562015 0
-0.0132171 -0.0214773 0
-0.00256979 -0.00601763 0
-0.0050502 0.0167845 0
-0.00833075 0.0203998 0
-0.00264203 -0.000283154 0
-0.00796983 -0.0205544 0
-0.00761349 -0.0165139 0
0.0226541 0.0146436 0
0.0475944 0.00521022 0
0.0517426 -0.000114982 0
0.0489459 -0.00350794 0
0.0161266 -0.0117798 0
