# vtk DataFile Version 4.0
SiwiRVisFile
ASCII
DATASET STRUCTURED_POINTS
DIMENSIONS 5 5 1
ORIGIN 0 0 0
SPACING 1 1 1
POINT_DATA 25

SCALARS flags double 1
LOOKUP_TABLE default
1
1
1
1
1
1
1
1
1
1
1
1
1
1
1
1
1
1
1
1
1
1
1
1
1

SCALARS density double 1
LOOKUP_TABLE default
0.983183
1.03731
1.00006
0.963094
1.0184
0.986214
1.0324
1.00054
0.968524
1.01284
1.02016
0.945849
0.999004
1.05344
0.979065
1.00109
0.984077
0.997996
1.01362
0.999073
0.972444
1.05927
0.998496
0.940481
1.03337

VECTORS velocity double
-0.00145185 0.00196169 0
-0.00249196 -0.0020353 0
0.00154067 -0.00109878 0
-0.00123757 0.0023672 0
-0.00128191 -0.00236842 0
0.000173234 0.0046134 0
-0.00824247 0.000499201 0
-0.0155759 -0.000163399 0
-0.00832206 -0.000574821 0
0.000801686 -0.00263796 0
-0.00168142 0.00634935 0
-0.0135136 0.0201521 0
-0.0220509 -0.000522179 0
-0.0134408 -0.0215153 0
-0.00272965 -0.00612452 0
-0.00515795 0.0168849 0
-0.00858481 0.0203668 0
-0.00307843 -0.000275644 0
-0.00821071 -0.0204251 0
-0.00765625 -0.016582 0
0.0225802 0.0146458 0
0.0473501 0.00523595 0
0.0515381 -8.65468e-005 0
0.048677 -0.00352423 0
0.0160134 -0.0117315 0
