# vtk DataFile Version 4.0
SiwiRVisFile
ASCII
DATASET STRUCTURED_POINTS
DIMENSIONS 5 5 1
ORIGIN 0 0 0
SPACING 1 1 1
POINT_DATA 25

SCALARS flags double 1
LOOKUP_TABLE default
1
1
1
1
1
1
1
1
1
1
1
1
1
1
1
1
1
1
1
1
1
1
1
1
1

SCALARS density double 1
LOOKUP_TABLE default
0.984324
1.03854
0.99991
0.96142
1.01682
0.987598
1.03295
1.00036
0.967905
1.01111
1.02254
0.947362
0.998959
1.05194
0.976672
1.00284
0.984602
0.998031
1.01322
0.997746
0.974258
1.06079
0.998669
0.93908
1.03234

VECTORS velocity double
-0.0014483 0.00166122 0
-0.00291874 -0.00196502 0
0.00133675 -0.00046168 0
-0.00166668 0.00321777 0
-0.00149381 -0.00118184 0
6.65154e-005 0.00463349 0
-0.00896493 0.000473783 0
-0.0158942 -0.000878903 0
-0.00933247 -0.00208001 0
0.00114293 -0.00402538 0
-0.00124108 0.00641045 0
-0.0145149 0.0202154 0
-0.0220058 -0.000195946 0
-0.0145841 -0.0205827 0
-0.00196195 -0.00424416 0
-0.00734244 0.0176528 0
-0.00789252 0.0227812 0
-0.00229196 -0.000817311 0
-0.0106018 -0.0210958 0
-0.0050558 -0.0183012 0
0.022317 0.0127787 0
0.0465181 0.00289187 0
0.0529856 3.64391e-005 0
0.0456536 -0.00423584 0
0.0292487 -0.016002 0
