# vtk DataFile Version 4.0
SiwiRVisFile
ASCII
DATASET STRUCTURED_POINTS
DIMENSIONS 5 5 1
ORIGIN 0 0 0
SPACING 1 1 1
POINT_DATA 25

SCALARS flags double 1
LOOKUP_TABLE default
1
1
1
1
1
1
1
1
1
1
1
1
1
1
1
1
1
1
1
1
1
1
1
1
1

SCALARS density double 1
LOOKUP_TABLE default
0.98308
1.03753
1.00005
0.962633
1.01823
0.986292
1.03248
1.00052
0.968519
1.01253
1.02077
0.946215
0.999043
1.053
0.97845
1.00131
0.984152
0.997983
1.01368
0.99897
0.972794
1.05946
0.998617
0.940216
1.03347

VECTORS velocity double
-0.00146797 0.00168749 0
-0.00299956 -0.00202945 0
0.00125211 -0.000454271 0
-0.00175819 0.00329124 0
-0.00158521 -0.00113623 0
0.000110629 0.00464261 0
-0.00902559 0.000587298 0
-0.0160857 -0.000865129 0
-0.00949589 -0.00194766 0
0.00105698 -0.00381642 0
-0.00142688 0.00628586 0
-0.0144945 0.0201315 0
-0.0217274 -0.000114605 0
-0.0147267 -0.0202393 0
-0.00223668 -0.00397604 0
-0.00755479 0.0176026 0
-0.0083779 0.0225319 0
-0.00291521 -0.000751499 0
-0.0110591 -0.0205855 0
-0.00512216 -0.0183521 0
0.0221819 0.0128036 0
0.046086 0.00276162 0
0.0524851 0.000110821 0
0.0452803 -0.00414862 0
0.0291308 -0.0159275 0
