# vtk DataFile Version 4.0
SiwiRVisFile
ASCII
DATASET STRUCTURED_POINTS
DIMENSIONS 50 50 1
ORIGIN 0 0 0
SPACING 1 1 1
POINT_DATA 2500

SCALARS flags double 1
LOOKUP_TABLE default
1
1
1
1
1
1
1
1
1
1
1
1
1
1
1
1
1
1
1
1
1
1
1
1
1
1
1
1
1
1
1
1
1
1
1
1
1
1
1
1
1
1
1
1
1
1
1
1
1
1
1
1
1
1
1
1
1
1
1
1
1
1
1
1
1
1
1
1
1
1
1
1
1
1
1
1
1
1
1
1
1
1
1
1
1
1
1
1
1
1
1
1
1
1
1
1
1
1
1
1
1
1
1
1
1
1
1
1
1
1
1
1
1
1
1
1
1
1
1
1
1
1
1
1
1
1
1
1
1
1
1
1
1
1
1
1
1
1
1
1
1
1
1
1
1
1
1
1
1
1
1
1
1
1
1
1
1
1
1
1
1
1
1
1
1
1
1
1
1
1
1
1
1
1
1
1
1
1
1
1
1
1
1
1
1
1
1
1
1
1
1
1
1
1
1
1
1
1
1
1
1
1
1
1
1
1
1
1
1
1
1
1
1
1
1
1
1
1
1
1
1
1
1
1
1
1
1
1
1
1
1
1
1
1
1
1
1
1
1
1
1
1
1
1
1
1
1
1
1
1
1
1
1
1
1
1
1
1
1
1
1
1
1
1
1
1
1
1
1
1
1
1
1
1
1
1
1
1
1
1
1
1
1
1
1
1
1
1
1
1
1
1
1
1
1
1
1
1
1
1
1
1
1
1
1
1
1
1
1
1
1
1
1
1
1
1
1
1
1
1
1
1
1
1
1
1
1
1
1
1
1
1
1
1
1
1
1
1
1
1
1
1
1
1
1
1
1
1
1
1
1
1
1
1
1
1
1
1
1
1
1
1
1
1
1
1
1
1
1
1
1
1
1
1
1
1
1
1
1
1
1
1
1
1
1
1
1
1
1
1
1
1
1
1
1
1
1
1
1
1
1
1
1
1
1
1
1
1
1
1
1
1
1
1
1
1
1
1
1
1
1
1
1
1
1
1
1
1
1
1
1
1
1
1
1
1
1
1
1
1
1
1
1
1
1
1
1
1
1
1
1
1
1
1
1
1
1
1
1
1
1
1
1
1
1
1
1
1
1
1
1
1
1
1
1
1
1
1
1
1
1
1
1
1
1
1
1
1
1
1
1
1
1
1
1
1
1
1
1
1
1
1
1
1
1
1
1
1
1
1
1
1
1
1
1
1
1
1
1
1
1
1
1
1
1
1
1
1
1
1
1
1
1
1
1
1
1
1
1
1
1
1
1
1
1
1
1
1
1
1
1
1
1
1
1
1
1
1
1
1
1
1
1
1
1
1
1
1
1
1
1
1
1
1
1
1
1
1
1
1
1
1
1
1
1
1
1
1
1
1
1
1
1
1
1
1
1
1
1
1
1
1
1
1
1
1
1
1
1
1
1
1
1
1
1
1
1
1
1
1
1
1
1
1
1
1
1
1
1
1
1
1
1
1
1
1
1
1
1
1
1
1
1
1
1
1
1
1
1
1
1
1
1
1
1
1
1
1
1
1
1
1
1
1
1
1
1
1
1
1
1
1
1
1
1
1
1
1
1
1
1
1
1
1
1
1
1
1
1
1
1
1
1
1
1
1
1
1
1
1
1
1
1
1
1
1
1
1
1
1
1
1
1
1
1
1
1
1
1
1
1
1
1
1
1
1
1
1
1
1
1
1
1
1
1
1
1
1
1
1
1
1
1
1
1
1
1
1
1
1
1
1
1
1
1
1
1
1
1
1
1
1
1
1
1
1
1
1
1
1
1
1
1
1
1
1
1
1
1
1
1
1
1
1
1
1
1
1
1
1
1
1
1
1
1
1
1
1
1
1
1
1
1
1
1
1
1
1
1
1
1
1
1
1
1
1
1
1
1
1
1
1
1
1
1
1
1
1
1
1
1
1
1
1
1
1
1
1
1
1
1
1
1
1
1
1
1
1
1
1
1
1
1
1
1
1
1
1
1
1
1
1
1
1
1
1
1
1
1
1
1
1
1
1
1
1
1
1
1
1
1
1
1
1
1
1
1
1
1
1
1
1
1
1
1
1
1
1
1
1
1
1
1
1
1
1
1
1
1
1
1
1
1
1
1
1
1
1
1
1
1
1
1
1
1
1
1
1
1
1
1
1
1
1
1
1
1
1
1
1
1
1
1
1
1
1
1
1
1
1
1
1
1
1
1
1
1
1
1
1
1
1
1
1
1
1
1
1
1
1
1
1
1
1
1
1
1
1
1
1
1
1
1
1
1
1
1
1
1
1
1
1
1
1
1
1
1
1
1
1
1
1
1
1
1
1
1
1
1
1
1
1
1
1
1
1
1
1
1
1
1
1
1
1
1
1
1
1
1
1
1
1
1
1
1
1
1
1
1
1
1
1
1
1
1
1
1
1
1
1
1
1
1
1
1
1
1
1
1
1
1
1
1
1
1
1
1
1
1
1
1
1
1
1
1
1
1
1
1
1
1
1
1
1
1
1
1
1
1
1
1
1
1
1
1
1
1
1
1
1
1
1
1
1
1
1
1
1
1
1
1
1
1
1
1
1
1
1
1
1
1
1
1
1
1
1
1
1
1
1
1
1
1
1
1
1
1
1
1
1
1
1
1
1
1
1
1
1
1
1
1
1
1
1
1
1
1
1
1
1
1
1
1
1
1
1
1
1
1
1
1
1
1
1
1
1
1
1
1
1
1
1
1
1
1
1
1
1
1
1
1
1
1
1
1
1
1
1
1
1
1
1
1
1
1
1
1
1
1
1
1
1
1
1
1
1
1
1
1
1
1
1
1
1
1
1
1
1
1
1
1
1
1
1
1
1
1
1
1
1
1
1
1
1
1
1
1
1
1
1
1
1
1
1
1
1
1
1
1
1
1
1
1
1
1
1
1
1
1
1
1
1
1
1
1
1
1
1
1
1
1
1
1
1
1
1
1
1
1
1
1
1
1
1
1
1
1
1
1
1
1
1
1
1
1
1
1
1
1
1
1
1
1
1
1
1
1
1
1
1
1
1
1
1
1
1
1
1
1
1
1
1
1
1
1
1
1
1
1
1
1
1
1
1
1
1
1
1
1
1
1
1
1
1
1
1
1
1
1
1
1
1
1
1
1
1
1
1
1
1
1
1
1
1
1
1
1
1
1
1
1
1
1
1
1
1
1
1
1
1
1
1
1
1
1
1
1
1
1
1
1
1
1
1
1
1
1
1
1
1
1
1
1
1
1
1
1
1
1
1
1
1
1
1
1
1
1
1
1
1
1
1
1
1
1
1
1
1
1
1
1
1
1
1
1
1
1
1
1
1
1
1
1
1
1
1
1
1
1
1
1
1
1
1
1
1
1
1
1
1
1
1
1
1
1
1
1
1
1
1
1
1
1
1
1
1
1
1
1
1
1
1
1
1
1
1
1
1
1
1
1
1
1
1
1
1
1
1
1
1
1
1
1
1
1
1
1
1
1
1
1
1
1
1
1
1
1
1
1
1
1
1
1
1
1
1
1
1
1
1
1
1
1
1
1
1
1
1
1
1
1
1
1
1
1
1
1
1
1
1
1
1
1
1
1
1
1
1
1
1
1
1
1
1
1
1
1
1
1
1
1
1
1
1
1
1
1
1
1
1
1
1
1
1
1
1
1
1
1
1
1
1
1
1
1
1
1
1
1
1
1
1
1
1
1
1
1
1
1
1
1
1
1
1
1
1
1
1
1
1
1
1
1
1
1
1
1
1
1
1
1
1
1
1
1
1
1
1
1
1
1
1
1
1
1
1
1
1
1
1
1
1
1
1
1
1
1
1
1
1
1
1
1
1
1
1
1
1
1
1
1
1
1
1
1
1
1
1
1
1
1
1
1
1
1
1
1
1
1
1
1
1
1
1
1
1
1
1
1
1
1
1
1
1
1
1
1
1
1
1
1
1
1
1
1
1
1
1
1
1
1
1
1
1
1
1
1
1
1
1
1
1
1
1
1
1
1
1
1
1
1
1
1
1
1
1
1
1
1
1
1
1
1
1
1
1
1
1
1
1
1
1
1
1
1
1
1
1
1
1
1
1
1
1
1
1
1
1
1
1
1
1
1
1
1
1
1
1
1
1
1
1
1
1
1
1
1
1
1
1
1
1
1
1
1
1
1
1
1
1
1
1
1
1
1
1
1
1
1
1
1
1
1
1
1
1
1
1
1
1
1
1
1
1
1
1
1
1
1
1
1
1
1
1
1
1
1
1
1
1
1
1
1
1
1
1
1
1
1
1
1
1
1
1
1
1
1
1
1
1
1
1
1
1
1
1
1
1
1
1
1
1
1
1
1
1
1
1
1
1
1
1
1
1
1
1
1
1
1
1
1
1
1
1
1
1
1
1
1
1
1
1
1
1
1
1
1
1
1
1
1
1
1
1
1
1
1
1
1
1
1
1
1
1
1
1
1
1
1
1
1
1
1
1
1
1
1
1
1
1
1
1
1
1
1
1
1
1
1
1
1
1
1
1
1
1
1
1
1
1
1
1
1
1
1
1
1
1
1
1
1
1
1
1
1
1
1
1
1
1
1
1
1
1
1
1
1
1
1
1
1
1
1
1
1
1
1
1
1
1
1
1
1
1
1
1
1
1
1
1
1
1
1
1
1
1
1
1
1
1
1
1
1
1
1
1
1
1
1
1
1
1
1
1
1
1
1
1
1
1
1
1
1
1
1
1
1
1
1
1
1
1
1
1
1
1
1
1
1
1
1
1
1
1
1
1
1
1
1
1
1
1
1
1
1
1
1
1
1
1
1
1
1
1
1
1
1
1
1
1
1
1
1
1
1
1
1
1
1
1
1
1
1
1
1
1
1
1
1
1
1
1
1
1
1
1
1
1
1
1
1
1
1
1
1
1
1
1
1
1
1
1
1
1
1
1
1
1
1
1
1
1
1
1
1
1
1
1
1
1
1
1
1
1
1
1
1
1
1
1
1
1
1
1
1
1
1
1
1
1
1
1
1
1
1
1
1
1
1
1
1
1
1
1
1
1
1
1
1
1
1
1
1
1
1
1
1
1
1
1
1
1
1
1
1
1
1
1
1
1
1
1
1
1
1
1
1
1
1
1
1
1
1
1
1
1
1
1
1
1
1
1
1
1
1
1
1
1
1
1
1
1
1
1
1
1
1
1
1
1
1
1
1
1
1
1
1
1
1
1
1
1
1
1
1
1
1
1
1
1
1
1
1
1
1
1
1
1
1
1
1
1
1
1
1
1
1
1
1
1
1
1
1
1
1
1
1
1
1
1
1
1
1
1
1
1
1
1
1
1
1
1
1
1
1
1
1
1
1
1
1
1
1
1
1
1
1
1
1
1
1
1
1
1
1
1
1
1
1
1
1
1
1
1
1
1
1
1
1
1
1
1
1
1
1
1
1
1
1
1
1
1
1
1
1
1
1
1
1
1
1
1
1
1
1
1
1
1
1
1
1
1
1
1
1
1
1
1
1
1
1
1
1
1
1
1
1
1
1
1
1
1
1
1
1
1
1
1
1
1
1
1
1
1
1
1
1
1
1
1
1
1
1
1
1
1
1
1
1
1
1
1
1
1
1
1
1
1
1
1
1
1
1
1
1
1
1
1
1
1
1
1
1
1
1
1
1
1
1
1
1
1
1
1
1
1
1
1
1
1
1
1
1
1
1
1
1
1
1
1

SCALARS density double 1
LOOKUP_TABLE default
0.999469
0.99942
0.999412
0.999411
0.99936
0.999398
0.99945
0.999451
0.999468
0.999532
0.999582
0.999604
0.999665
0.999746
0.999767
0.999794
0.999878
0.999924
0.9999
0.999938
1
0.999981
0.999949
1.00001
1.00003
0.999964
0.999983
1.00004
1.00001
0.999984
1.00005
1.00008
1.00005
1.00009
1.00017
1.00019
1.0002
1.00027
1.00032
1.00033
1.00037
1.00042
1.00043
1.00042
1.00047
1.0005
1.00045
1.00045
1.00046
1.00041
0.999388
0.999265
0.999266
0.999298
0.999245
0.999254
0.999302
0.999314
0.999335
0.999412
0.999449
0.999486
0.999554
0.999632
0.999672
0.999716
0.999792
0.99985
0.999867
0.999907
0.999958
0.999963
0.999959
0.999992
1
0.999988
0.999995
1.00003
1.00003
1.00002
1.00007
1.0001
1.00012
1.00016
1.00022
1.00026
1.00029
1.00034
1.0004
1.00042
1.00045
1.0005
1.00052
1.00053
1.00056
1.00056
1.00053
1.00055
1.00055
1.00046
0.999103
0.999079
0.999025
0.998996
0.999034
0.999026
0.99902
0.999067
0.999131
0.999132
0.999183
0.9993
0.99934
0.999374
0.999484
0.999592
0.999607
0.999678
0.999804
0.999835
0.999837
0.999919
0.999984
0.999948
0.999958
1.00003
1.00003
0.999997
1.00006
1.00013
1.00012
1.00014
1.00025
1.00031
1.0003
1.00039
1.00048
1.00049
1.00051
1.0006
1.00064
1.00062
1.00067
1.00071
1.0007
1.00068
1.00073
1.00071
1.00066
1.00066
0.998772
0.998779
0.998743
0.998702
0.998725
0.998747
0.998735
0.998758
0.998815
0.998841
0.998896
0.99896
0.999042
0.999105
0.999199
0.999297
0.999388
0.99948
0.999583
0.999681
0.999748
0.999821
0.999886
0.999931
0.999961
1.00001
1.00004
1.00008
1.00013
1.00019
1.00024
1.00032
1.00039
1.00046
1.00052
1.00058
1.00064
1.00068
1.00074
1.00077
1.00081
1.00082
1.00086
1.00088
1.00087
1.00088
1.0009
1.00087
1.00086
1.00086
0.99847
0.998425
0.998444
0.998472
0.998464
0.998443
0.998517
0.998507
0.998495
0.998583
0.998623
0.998625
0.998697
0.998822
0.998864
0.998926
0.999091
0.999218
0.999276
0.999411
0.999597
0.999663
0.999726
0.999875
0.999972
0.999978
1.00007
1.0002
1.00025
1.00029
1.00044
1.00054
1.00056
1.00065
1.00077
1.0008
1.0008
1.0009
1.00094
1.00093
1.00095
1.00103
1.00101
1.00099
1.00106
1.00105
1.00103
1.00105
1.00109
1.00105
0.998182
0.998198
0.998246
0.998294
0.998299
0.998294
0.998362
0.998361
0.99838
0.99837
0.998412
0.998436
0.998464
0.9985
0.998564
0.998657
0.998717
0.998834
0.998983
0.999114
0.999257
0.99943
0.999598
0.999727
0.999878
1.00003
1.00016
1.00027
1.00041
1.00054
1.00063
1.00072
1.00082
1.0009
1.00091
1.00098
1.00102
1.00103
1.00105
1.00107
1.0011
1.00108
1.00111
1.00111
1.00116
1.00116
1.00117
1.00119
1.00123
1.00124
0.997995
0.998116
0.998183
0.998154
0.998266
0.998307
0.998287
0.998305
0.998379
0.998351
0.998324
0.998379
0.998391
0.998326
0.99839
0.998449
0.998452
0.998503
0.998672
0.9988
0.998894
0.999138
0.999384
0.99956
0.999751
1.00006
1.00024
1.00039
1.00059
1.00078
1.00083
1.0009
1.00103
1.00105
1.00104
1.00107
1.00114
1.00108
1.0011
1.00116
1.00114
1.00113
1.00118
1.00122
1.00119
1.00121
1.00131
1.00127
1.0013
1.00137
0.997978
0.998064
0.998155
0.998135
0.998234
0.99825
0.998315
0.998305
0.99836
0.998395
0.998384
0.998383
0.998375
0.998406
0.99834
0.998324
0.998359
0.998376
0.998379
0.998486
0.998679
0.998828
0.999063
0.999382
0.999722
0.999958
1.00028
1.00057
1.00076
1.00086
1.00102
1.0011
1.00108
1.0011
1.00114
1.00114
1.00109
1.00116
1.00116
1.00117
1.00118
1.00122
1.00126
1.00125
1.00131
1.00131
1.00136
1.00135
1.0014
1.00142
0.998056
0.998021
0.998128
0.99814
0.99817
0.998136
0.998257
0.998296
0.998264
0.998326
0.998441
0.998379
0.998404
0.998458
0.998433
0.998361
0.998377
0.998378
0.998311
0.998364
0.998501
0.998645
0.998854
0.999216
0.999586
0.999909
1.00026
1.00061
1.0008
1.00094
1.00106
1.00113
1.00109
1.00112
1.00117
1.00114
1.00115
1.0012
1.00126
1.00121
1.0013
1.00136
1.00132
1.00135
1.00143
1.00142
1.00142
1.00142
1.0015
1.00145
0.998107
0.998103
0.998136
0.99807
0.998144
0.998108
0.998117
0.998163
0.998188
0.998226
0.998248
0.99836
0.998376
0.998394
0.998471
0.998502
0.998456
0.998424
0.998492
0.998472
0.998462
0.998642
0.998886
0.999111
0.999404
0.999874
1.00018
1.00042
1.0007
1.00091
1.00096
1.00099
1.00112
1.00113
1.00113
1.00119
1.00128
1.0013
1.0013
1.00141
1.00141
1.00143
1.00145
1.00149
1.00148
1.00146
1.00152
1.00148
1.00149
1.0015
0.998207
0.998224
0.998201
0.998102
0.998164
0.998178
0.998094
0.99807
0.998155
0.998132
0.998092
0.998184
0.998274
0.998285
0.998342
0.998485
0.998518
0.998562
0.998638
0.998697
0.998743
0.99883
0.99902
0.999155
0.999419
0.999675
0.999978
1.00019
1.00045
1.00065
1.00079
1.00094
1.00106
1.00117
1.00122
1.00135
1.00139
1.0014
1.00146
1.00152
1.0015
1.00147
1.00154
1.00154
1.00147
1.00149
1.00154
1.00149
1.00147
1.00149
0.998369
0.998252
0.998294
0.998295
0.998271
0.998214
0.998252
0.998211
0.99812
0.998145
0.998147
0.998074
0.9981
0.998184
0.998257
0.998272
0.998503
0.998675
0.99874
0.998936
0.999145
0.999218
0.99921
0.999412
0.999491
0.999517
0.999644
0.999958
1.00008
1.00029
1.0006
1.00089
1.001
1.00118
1.00141
1.00141
1.00146
1.00153
1.00156
1.00149
1.0015
1.00157
1.00148
1.00147
1.00153
1.00149
1.00146
1.00149
1.00153
1.00145
0.99841
0.998279
0.998346
0.998358
0.998326
0.998256
0.998321
0.998325
0.998236
0.998206
0.998219
0.998183
0.99806
0.998147
0.99817
0.998238
0.998367
0.998636
0.998902
0.99914
0.999401
0.999571
0.999656
0.99961
0.999556
0.999486
0.999496
0.999544
0.999769
1.00005
1.0004
1.00069
1.001
1.00126
1.00138
1.00147
1.00149
1.00157
1.00149
1.0015
1.00152
1.00152
1.00147
1.00149
1.00154
1.00151
1.00149
1.0015
1.00155
1.00148
0.998281
0.998284
0.998288
0.998126
0.998246
0.998265
0.998188
0.998231
0.998317
0.998283
0.99821
0.998271
0.998282
0.998135
0.998189
0.998334
0.998396
0.998571
0.99898
0.999307
0.999505
0.999785
0.999965
0.999805
0.999633
0.999573
0.99944
0.999337
0.999556
0.999921
1.00016
1.00053
1.00096
1.00118
1.00126
1.00143
1.00154
1.00143
1.00147
1.00157
1.00151
1.00148
1.00156
1.00161
1.00152
1.00155
1.00166
1.00154
1.00154
1.00158
0.998162
0.998142
0.998148
0.998024
0.998115
0.998127
0.998112
0.998121
0.998194
0.998272
0.998217
0.998295
0.998342
0.998366
0.998364
0.998465
0.998647
0.998783
0.999018
0.999346
0.999649
0.99983
0.999887
0.999963
0.999818
0.999622
0.999455
0.999503
0.999538
0.999693
1.00003
1.00038
1.00067
1.00088
1.00115
1.0013
1.00135
1.00144
1.00149
1.00155
1.00151
1.00158
1.00161
1.00161
1.0016
1.00161
1.00166
1.00161
1.00162
1.00162
0.998113
0.99794
0.998046
0.998119
0.998069
0.997993
0.998103
0.998135
0.998
0.998105
0.998242
0.998221
0.998267
0.998516
0.998625
0.998675
0.998893
0.999184
0.999231
0.999383
0.999658
0.999731
0.999758
0.999849
0.999936
0.999716
0.999723
0.999721
0.999657
0.999656
0.999899
1.00012
1.00025
1.00063
1.00094
1.00109
1.00123
1.00148
1.00155
1.0015
1.00161
1.0017
1.00158
1.0016
1.0017
1.00165
1.00158
1.00166
1.00175
1.00162
0.997975
0.997944
0.998048
0.998039
0.998088
0.998026
0.998046
0.998069
0.998029
0.998029
0.998076
0.998208
0.998279
0.998433
0.998766
0.998997
0.999218
0.999394
0.999605
0.999592
0.999521
0.999595
0.999659
0.999689
0.999744
1.00001
1
0.999906
0.999838
0.999834
0.999726
0.999745
1.00005
1.00031
1.0006
1.00091
1.00127
1.00141
1.00148
1.00163
1.00165
1.00166
1.00165
1.00169
1.00168
1.00166
1.0017
1.00168
1.00172
1.00171
0.997841
0.998028
0.998056
0.997883
0.998042
0.9981
0.997988
0.997977
0.99814
0.998093
0.998008
0.998189
0.998394
0.998509
0.998762
0.999257
0.999487
0.999629
0.999794
0.999817
0.999583
0.999467
0.999545
0.999557
0.999735
1.00003
1.00018
1.00009
1.00007
0.999881
0.999624
0.999621
0.999811
1.00003
1.0003
1.00082
1.0011
1.00126
1.00147
1.00165
1.00161
1.00159
1.00173
1.00175
1.00163
1.0017
1.00181
1.00169
1.00166
1.00179
0.997963
0.997903
0.997979
0.997965
0.99798
0.997977
0.998085
0.998077
0.998038
0.998169
0.998221
0.998243
0.998415
0.998737
0.99898
0.999215
0.999635
0.999851
0.999816
0.999794
0.999749
0.999538
0.999386
0.999592
0.999827
0.999912
1.00012
1.00034
1.00015
0.99988
0.999771
0.999705
0.999616
0.999816
1.00028
1.00053
1.00083
1.00121
1.00143
1.00148
1.00157
1.00173
1.00166
1.00166
1.00175
1.00175
1.0017
1.00175
1.0018
1.00171
0.998079
0.997841
0.997996
0.998117
0.998019
0.997911
0.998115
0.998156
0.998019
0.998129
0.998384
0.998455
0.998553
0.99896
0.999255
0.999394
0.999624
0.999847
0.999848
0.999707
0.999745
0.999685
0.999576
0.999651
0.999774
0.999915
1.00006
1.00019
1.00013
1.00003
0.999987
0.999755
0.99966
0.999811
1.00003
1.00024
1.0006
1.00106
1.00124
1.00138
1.00164
1.00175
1.00165
1.00169
1.00183
1.00176
1.00165
1.00176
1.00187
1.0017
0.997963
0.998063
0.998065
0.99789
0.998008
0.998036
0.997909
0.997928
0.998091
0.99814
0.998218
0.998592
0.998928
0.999064
0.999405
0.999719
0.999672
0.999632
0.999738
0.999773
0.999603
0.999727
0.999916
0.999772
0.999772
0.999901
0.999978
0.999896
1.00012
1.00028
1.00003
0.999928
0.999927
0.99982
0.999732
1.00007
1.00049
1.00069
1.00107
1.0015
1.00159
1.00165
1.00183
1.00189
1.00175
1.00181
1.00192
1.00178
1.00172
1.00186
0.997964
0.998077
0.997982
0.997794
0.99793
0.998028
0.997869
0.997846
0.998086
0.998258
0.998287
0.998664
0.999116
0.999389
0.999538
0.999751
0.999812
0.999581
0.999534
0.999597
0.999698
0.999794
0.999933
1.00001
0.999874
0.999853
0.999761
0.999898
1.00008
1.00018
1.00026
1.00023
1.00008
0.99977
0.999785
0.99997
1.00015
1.00049
1.00097
1.00135
1.00145
1.00165
1.00185
1.00186
1.00177
1.00187
1.00196
1.00188
1.00179
1.00187
0.998116
0.997797
0.997868
0.998093
0.997926
0.997804
0.998091
0.998165
0.998035
0.998293
0.99871
0.998819
0.999113
0.99962
0.999796
0.999648
0.999691
0.999732
0.99942
0.99944
0.999754
0.999895
0.999899
1.00004
1.00009
0.999737
0.999748
0.999925
0.999978
1.0001
1.00042
1.00045
1.00005
0.999988
0.999966
0.999776
0.999919
1.00045
1.0008
1.00096
1.0014
1.00173
1.00162
1.0017
1.00197
1.0019
1.00172
1.00196
1.00205
1.00179
0.997937
0.997784
0.997892
0.997971
0.997909
0.997855
0.998003
0.998133
0.998169
0.998343
0.998719
0.999102
0.999263
0.999524
0.999744
0.999709
0.999536
0.999477
0.999578
0.999532
0.99961
0.999855
1
1.00001
0.999926
0.99995
0.999858
0.999834
0.999963
1.00024
1.00037
1.00032
1.0004
1.00026
0.999971
0.999837
1.00003
1.00027
1.00049
1.00097
1.00137
1.00158
1.00171
1.00187
1.00194
1.00195
1.00192
1.00195
1.00202
1.00199
0.997604
0.998056
0.997941
0.997559
0.997862
0.998102
0.997787
0.997863
0.998439
0.998649
0.998704
0.999282
0.999759
0.999595
0.999547
0.999766
0.999572
0.999336
0.999558
0.999751
0.999647
0.999759
0.999994
0.999894
0.999862
1.00005
1.00003
0.999848
1.00004
1.00022
1.00016
1.00036
1.00057
1.00033
1
1.00009
1.00001
0.999835
1.0003
1.00092
1.00107
1.00131
1.00188
1.00203
1.00176
1.00199
1.00226
1.00196
1.00181
1.00222
0.997766
0.997798
0.997745
0.997753
0.997796
0.997823
0.997951
0.998078
0.998351
0.998837
0.999196
0.999454
0.999723
0.999855
0.999608
0.999405
0.999494
0.999522
0.99946
0.999667
0.99986
0.999773
0.999669
0.999836
1.00001
0.99994
1.00004
1.00021
1.00011
0.999995
1.0002
1.00048
1.00044
1.00042
1.00049
1.0002
0.999853
0.999969
1.00022
1.00046
1.00088
1.00141
1.00165
1.00182
1.00203
1.00206
1.00203
1.00214
1.00211
1.00204
0.997966
0.997417
0.997634
0.998083
0.997808
0.997541
0.998122
0.99847
0.998323
0.998787
0.999538
0.999633
0.999473
0.999726
0.999722
0.999266
0.99926
0.999584
0.99963
0.999581
0.999824
0.999803
0.999616
0.999759
0.999916
1.00001
1.00014
1.00029
1.00011
1.00003
1.00027
1.0003
1.00036
1.00068
1.00069
1.00022
1.00008
1.00024
1.0001
1.0002
1.00092
1.00142
1.00136
1.0017
1.00221
1.00207
1.00182
1.00221
1.00241
1.00196
0.997495
0.997798
0.997794
0.997623
0.997807
0.998018
0.997971
0.998282
0.99881
0.999037
0.999234
0.999742
0.999774
0.999417
0.999465
0.999603
0.999402
0.999422
0.999787
0.999887
0.999586
0.999703
0.999851
0.99966
0.999776
1.00011
1.0003
1.0001
1.00018
1.00033
1.00005
1.0001
1.00053
1.00064
1.00043
1.0005
1.00048
1.00001
0.999965
1.00048
1.00069
1.00094
1.00155
1.00189
1.00179
1.00205
1.00229
1.0021
1.00204
1.00242
0.997494
0.998067
0.997856
0.997392
0.997856
0.998316
0.998036
0.998216
0.999078
0.999448
0.999278
0.999628
0.999893
0.999495
0.999203
0.999518
0.999658
0.999451
0.999681
0.999778
0.999691
0.999577
0.999704
0.999807
0.999814
1.00008
1.00011
1.00022
1.00036
1.00025
1.00015
1.00025
1.00055
1.00045
1.00058
1.00084
1.00049
1.00002
1.00016
1.00044
1.00035
1.00076
1.00156
1.00181
1.00165
1.00204
1.00242
1.00213
1.00192
1.00235
0.998048
0.997498
0.997584
0.998127
0.997833
0.997691
0.998452
0.99886
0.998798
0.999395
0.99999
0.999589
0.99931
0.999566
0.999471
0.999139
0.999488
0.999887
0.999561
0.999522
0.999756
0.999734
0.999546
0.999836
1.00012
0.999838
1.00002
1.00035
1.00025
1.00017
1.00039
1.00047
1.00017
1.00052
1.00097
1.00067
1.00048
1.00065
1.00034
0.999861
1.00041
1.00106
1.00099
1.00141
1.00222
1.00213
1.00179
1.00238
1.00251
1.00195
0.99788
0.997375
0.997601
0.998059
0.997768
0.997716
0.998448
0.999083
0.999025
0.99937
0.999928
0.999745
0.999164
0.999281
0.999525
0.999389
0.999388
0.999753
0.999832
0.99952
0.999608
0.999773
0.999851
0.999878
0.9999
1.00001
1.00006
1.0001
1.00016
1.00035
1.00048
1.00021
1.00028
1.00065
1.0007
1.00062
1.00085
1.00088
1.00027
1.00007
1.00051
1.00078
1.00088
1.00148
1.00209
1.00218
1.00203
1.00232
1.00253
1.00226
0.997228
0.998178
0.99795
0.997167
0.997947
0.998688
0.99832
0.998632
0.999812
0.999832
0.999225
0.999547
0.999792
0.9991
0.999218
0.999769
0.999709
0.999373
0.999667
0.999814
0.999433
0.999638
0.999989
0.999901
0.999826
1.00008
1.00009
0.999937
1.00026
1.00059
1.00027
1.00034
1.00066
1.00041
1.00032
1.0009
1.00111
1.00041
1.0005
1.00081
1.00018
1.00011
1.00127
1.00166
1.00128
1.00202
1.00282
1.00212
1.00184
1.00279
0.997593
0.997869
0.997573
0.997557
0.997909
0.998412
0.998633
0.998911
0.999481
0.999793
0.999435
0.999264
0.999423
0.999485
0.999259
0.999493
0.999737
0.99958
0.999347
0.99951
0.999778
0.999714
0.999749
0.999984
1.00008
0.99991
0.999907
1.00017
1.0003
1.00024
1.00048
1.0007
1.00051
1.00033
1.00063
1.00093
1.00075
1.00083
1.00093
1.00058
1.00025
1.00058
1.00102
1.00131
1.00171
1.00212
1.00233
1.00255
1.00234
1.00235
0.998203
0.996807
0.997312
0.998592
0.998004
0.99762
0.999131
0.99982
0.999028
0.999354
1.00009
0.999395
0.998808
0.999567
0.999881
0.999226
0.999468
0.99985
0.999516
0.999292
0.999829
0.999997
0.999739
0.999973
1.0001
0.999881
0.999964
1.00025
1.00006
1.00015
1.00068
1.00059
1.00023
1.00059
1.00095
1.0004
1.00065
1.00145
1.00092
1.00009
1.00069
1.00105
1.00031
1.00091
1.00236
1.00209
1.00152
1.00268
1.00323
1.00199
0.997146
0.99761
0.99777
0.997667
0.998045
0.998588
0.998811
0.999305
0.999788
0.999513
0.999341
0.999441
0.999338
0.999165
0.999444
0.999699
0.999397
0.999405
0.999597
0.999652
0.999535
0.9998
1.00008
0.999897
0.999861
1.00006
1.00017
0.999964
1.00013
1.00047
1.00042
1.00039
1.00067
1.00077
1.00048
1.00073
1.00116
1.00099
1.00082
1.00097
1.00072
1.00032
1.00089
1.00142
1.00142
1.00204
1.00257
1.00228
1.00234
1.0031
0.996774
0.998406
0.997981
0.996769
0.99814
0.999466
0.99861
0.998706
1.00015
1.00001
0.998735
0.999212
0.99988
0.999217
0.999013
0.999751
0.999768
0.999105
0.999445
0.999867
0.999716
0.999652
0.999951
0.999998
0.999895
1.00009
1.00005
1.00005
1.00035
1.00037
1.00015
1.00052
1.00098
1.00046
1.0004
1.00116
1.00113
1.00048
1.00109
1.00164
1.00042
1.00011
1.00142
1.00158
1.00084
1.00196
1.00321
1.00229
1.00183
1.00318
0.998078
0.997059
0.997225
0.998462
0.998196
0.99807
0.999449
0.999841
0.99915
0.999414
0.999894
0.999209
0.999118
0.999637
0.99959
0.999106
0.999395
0.999725
0.999386
0.999528
0.999927
0.999911
0.999685
0.999967
1.0002
0.999863
0.999985
1.00034
1.00021
1.00008
1.00046
1.00072
1.0004
1.00065
1.0011
1.00073
1.0006
1.00125
1.00134
1.00057
1.00094
1.0013
1.00047
1.00071
1.00225
1.00208
1.00159
1.003
1.00328
1.00201
0.998078
0.996421
0.99734
0.998939
0.99823
0.997787
0.999555
1.00023
0.998936
0.998959
0.999923
0.999565
0.998781
0.999455
0.999738
0.999066
0.998996
0.999552
0.999661
0.999448
0.999805
0.999953
0.999859
0.999962
0.999996
1
1.00011
1.00022
1.00008
1.00023
1.00063
1.00043
1.00044
1.00106
1.00115
1.00051
1.0008
1.00164
1.00105
1.00059
1.00146
1.0015
1.00032
1.00084
1.00235
1.00214
1.00159
1.00279
1.00367
1.00247
0.99625
0.998586
0.998248
0.996613
0.998429
0.999996
0.99878
0.998724
1.00031
0.999741
0.998544
0.999417
1.00014
0.99913
0.999015
0.999645
0.999405
0.998998
0.999599
1.00008
0.999636
0.999718
1.00013
0.999982
0.99985
1.00014
1.0002
0.999963
1.00029
1.00054
1.0001
1.00036
1.00105
1.0008
1.00044
1.00112
1.00135
1.00042
1.00098
1.00206
1.00099
1.00013
1.00172
1.00184
1.0004
1.0019
1.00384
1.00212
1.00165
1.00415
0.997116
0.998282
0.997662
0.99716
0.998437
0.999651
0.999091
0.998901
0.999919
0.999769
0.998898
0.999132
0.999741
0.999422
0.998907
0.99929
0.999376
0.999161
0.999425
0.999796
0.999859
0.999745
0.999883
0.999966
0.999963
1.00009
1.00005
1.00016
1.0004
1.00033
1.00026
1.00062
1.0009
1.00067
1.0008
1.00137
1.00102
1.00067
1.00137
1.00176
1.00099
1.00081
1.00164
1.00149
1.00115
1.00208
1.00298
1.00296
1.00243
1.00298
0.999109
0.995594
0.996937
0.999983
0.998429
0.997191
1.00013
1.00083
0.998378
0.998874
1.00043
0.99935
0.998375
0.99952
0.999914
0.998717
0.998918
0.999778
0.999592
0.99941
0.999938
1.00015
0.999761
0.999875
1.00012
0.999969
1.00016
1.00039
1.00008
1.00017
1.00074
1.00063
1.00023
1.00098
1.00152
1.00048
1.00062
1.00198
1.00142
1.00021
1.00169
1.00254
1.00011
1.00043
1.0035
1.00231
1.00056
1.00355
1.00494
1.00147
0.996752
0.996981
0.997882
0.998126
0.99834
0.998841
0.999379
0.999744
0.999595
0.999163
0.999396
0.999389
0.999152
0.999058
0.999172
0.999218
0.999123
0.999359
0.999617
0.999695
0.999814
0.999954
1.00004
0.999893
0.999838
1.00012
1.00026
1.00014
1.00016
1.0004
1.00054
1.00046
1.00066
1.00099
1.00092
1.00094
1.00122
1.00132
1.00114
1.00129
1.0017
1.0013
1.00126
1.00164
1.0018
1.00239
1.00296
1.00264
1.00326
1.00431
0.995309
1.00009
0.998667
0.995123
0.998765
1.00138
0.998481
0.998082
1.00085
1.00031
0.997941
0.999109
1.0002
0.998776
0.998311
0.999482
0.999613
0.998906
0.999442
1.00009
0.999748
0.999765
1.0001
0.999854
0.999748
1.00022
1.00029
1.00006
1.00045
1.0006
1.00011
1.00057
1.00129
1.00062
1.00043
1.00173
1.00169
1.00017
1.00114
1.00287
1.00094
1.00001
1.00281
1.00279
0.999709
1.002
1.00561
1.00223
1.00082
1.00524
0.998857
0.996429
0.996631
0.999118
0.998594
0.998241
0.999858
1.00005
0.999067
0.999107
0.999842
0.999147
0.998657
0.998969
0.999066
0.998874
0.999112
0.999673
0.999667
0.999626
0.999926
1.00002
0.999879
0.999853
0.999994
1.0001
1.00018
1.00028
1.00028
1.00031
1.00056
1.00067
1.00059
1.00089
1.00117
1.00107
1.00107
1.00156
1.00149
1.00091
1.00171
1.00215
1.00122
1.0012
1.00306
1.0027
1.00151
1.00447
1.00491
1.00162
0.999231
0.993871
0.996817
1.00118
0.998332
0.996526
1.00064
1.00139
0.998206
0.998692
1.00054
0.999371
0.997878
0.99893
0.999451
0.998566
0.998924
0.999892
0.999768
0.999543
1.00001
1.00013
0.999729
0.999837
1.00006
0.999953
1.0002
1.00047
1.00016
1.00024
1.00084
1.00067
1.00025
1.0011
1.00162
1.00057
1.00084
1.00239
1.00142
1.00003
1.00207
1.0033
1.00024
1.0005
1.00471
1.0032
1.00016
1.00422
1.00685
1.00231
0.993836
0.99984
0.998886
0.995048
0.998495
1.0014
0.998792
0.998267
1.00064
1.00003
0.998188
0.998685
0.999571
0.998493
0.9981
0.999222
0.999529
0.999178
0.999589
1.00018
0.999957
0.999706
0.999912
0.999883
0.999871
1.00017
1.00024
1.00018
1.00049
1.00056
1.0003
1.00068
1.00121
1.00081
1.00065
1.00169
1.00168
1.00058
1.00136
1.00252
1.00123
1.0004
1.0031
1.00315
1.00024
1.00268
1.00667
1.00231
1.00117
1.00826
0.996336
1.00089
0.997842
0.994572
0.999074
1.00136
0.998674
0.99859
1.00085
1.00001
0.998198
0.998845
0.999309
0.998151
0.998116
0.999231
0.999499
0.999301
0.999897
1.00029
0.999888
0.999785
0.999975
0.999798
0.999819
1.00023
1.00023
1.00008
1.00054
1.00067
1.00019
1.00051
1.00124
1.0008
1.00053
1.00166
1.00189
1.00058
1.00117
1.00264
1.00129
1.00025
1.00297
1.00352
1.00052
1.00232
1.00681
1.00371
1.00151
1.00506
1.00126
0.989694
0.994757
1.00276
0.998501
0.995673
1.0006
1.00198
0.998283
0.998087
1.00021
0.998977
0.99728
0.998475
0.999253
0.998546
0.998881
1.00018
1.00017
0.99975
1.00004
1.00003
0.999613
0.999738
1.00003
1.00001
1.00023
1.00052
1.0003
1.00035
1.00092
1.00072
1.00034
1.00133
1.00175
1.00064
1.00092
1.00265
1.0015
0.999847
1.00242
1.00366
1.00003
1.00076
1.00638
1.00387
0.998671
1.0069
1.01132
0.998672
0.994821
0.994644
0.997633
0.999558
0.997754
0.998859
1.0006
1.00037
0.999117
0.999545
0.999306
0.998238
0.997955
0.998474
0.998388
0.998554
0.99941
1.00008
0.999984
1.00006
1.00017
0.999835
0.999502
0.999809
1.00004
0.999999
1.00022
1.0006
1.00042
1.00029
1.00068
1.00085
1.0005
1.00093
1.00155
1.00126
1.00092
1.00178
1.00182
1.00076
1.00126
1.00276
1.00179
1.00124
1.00358
1.005
1.00201
1.0042
1.00796
1.00877
0.993457
1.00818
0.998364
0.991712
0.999015
1.00325
0.998206
0.998225
1.00174
1.00049
0.997216
0.998247
0.999129
0.997535
0.997321
0.999273
0.999822
0.999529
1.00032
1.00078
1.00001
0.999624
0.999779
0.999518
0.999566
1.00025
1.00029
1.00019
1.0008
1.00079
0.999981
1.00056
1.00153
1.00066
1.00034
1.00239
1.00218
0.999905
1.00125
1.00372
1.00048
0.999095
1.00474
1.00476
0.997856
1.00353
1.01184
1.001
0.99586
1.02328

VECTORS velocity double
3.9838e-005 5.52107e-005 0
1.55567e-005 0.000109883 0
4.18172e-006 8.05626e-005 0
-2.02141e-006 9.95431e-005 0
9.86704e-007 8.52241e-005 0
-1.76132e-005 0.000107567 0
-2.00326e-005 8.39507e-005 0
-2.12036e-005 9.41155e-005 0
-2.79202e-005 8.06505e-005 0
-3.41762e-005 8.53214e-005 0
-3.60922e-005 7.01013e-005 0
-3.42317e-005 7.18526e-005 0
-3.22538e-005 5.99762e-005 0
-3.34e-005 5.4607e-005 0
-2.90769e-005 4.34791e-005 0
-2.33041e-005 4.2248e-005 0
-2.06669e-005 2.9379e-005 0
-1.86475e-005 2.21187e-005 0
-1.17556e-005 1.70831e-005 0
-8.66924e-006 1.57172e-005 0
-5.81179e-006 6.1236e-006 0
-2.69178e-006 5.87586e-006 0
2.40581e-006 5.6551e-006 0
3.77411e-006 2.48738e-006 0
2.71358e-006 -1.86264e-006 0
3.37187e-006 2.83471e-006 0
4.58185e-006 -1.13324e-006 0
2.73449e-006 -3.98604e-006 0
-1.0334e-006 -4.30375e-006 0
-3.31232e-006 -4.51922e-006 0
-6.63731e-006 -1.25628e-005 0
-9.69553e-006 -1.36785e-005 0
-1.5263e-005 -1.77578e-005 0
-1.67649e-005 -2.35526e-005 0
-1.91189e-005 -3.35086e-005 0
-2.31042e-005 -3.44777e-005 0
-2.67803e-005 -4.30316e-005 0
-2.5882e-005 -4.59822e-005 0
-2.68826e-005 -5.49474e-005 0
-2.86281e-005 -5.22399e-005 0
-2.71528e-005 -6.324e-005 0
-2.13657e-005 -5.92962e-005 0
-1.52604e-005 -6.85689e-005 0
-1.58361e-005 -6.03725e-005 0
-1.31864e-005 -7.81949e-005 0
2.04827e-006 -6.17924e-005 0
-1.80648e-006 -7.01036e-005 0
1.85366e-006 -5.79835e-005 0
1.26141e-005 -8.1712e-005 0
2.92446e-005 -3.74413e-005 0
4.15585e-005 0.000169963 0
2.96893e-005 0.000327827 0
1.97652e-005 0.000268954 0
-2.96988e-006 0.000303902 0
-1.39909e-005 0.000282426 0
-2.96882e-005 0.000315259 0
-4.28478e-005 0.000278285 0
-5.2158e-005 0.000284322 0
-5.95242e-005 0.000265442 0
-7.0597e-005 0.000258236 0
-7.1533e-005 0.000229155 0
-7.06171e-005 0.000217711 0
-7.22753e-005 0.000194839 0
-7.21808e-005 0.000174693 0
-6.52344e-005 0.000139353 0
-5.71475e-005 0.000128804 0
-4.94277e-005 0.000101276 0
-4.05528e-005 7.52042e-005 0
-3.13147e-005 5.52768e-005 0
-2.20828e-005 4.86793e-005 0
-1.70151e-005 2.64896e-005 0
-1.25538e-005 1.73737e-005 0
-7.89593e-006 1.46619e-005 0
-5.3172e-006 7.50645e-006 0
-5.72308e-006 -2.50111e-007 0
-6.32218e-006 3.8528e-006 0
-5.33644e-006 -3.8806e-006 0
-5.78794e-006 -1.00848e-005 0
-1.02361e-005 -1.17241e-005 0
-1.51018e-005 -1.95611e-005 0
-1.8053e-005 -3.91621e-005 0
-2.53113e-005 -4.26265e-005 0
-3.45742e-005 -5.90441e-005 0
-4.23422e-005 -8.01292e-005 0
-4.67266e-005 -0.000101389 0
-5.34232e-005 -0.000107078 0
-6.05027e-005 -0.000134081 0
-5.87076e-005 -0.00014778 0
-5.53439e-005 -0.000162523 0
-5.70315e-005 -0.000168236 0
-5.57094e-005 -0.000188214 0
-4.54547e-005 -0.000193535 0
-4.07845e-005 -0.000202753 0
-3.3635e-005 -0.000198971 0
-2.21366e-005 -0.000226882 0
-1.14648e-005 -0.000199806 0
-2.61077e-006 -0.000216624 0
1.57031e-005 -0.000191607 0
2.24833e-005 -0.000237304 0
2.82393e-005 -0.000118228 0
4.41476e-005 0.000312994 0
3.40483e-005 0.000532152 0
3.4873e-005 0.000478166 0
7.5754e-006 0.00052565 0
-3.06286e-005 0.000503198 0
-3.00437e-005 0.000516289 0
-4.41111e-005 0.000494081 0
-6.93906e-005 0.000493049 0
-8.26394e-005 0.000465641 0
-8.31625e-005 0.000449894 0
-9.3581e-005 0.000421581 0
-0.000106696 0.000386268 0
-0.000100034 0.000355001 0
-9.47735e-005 0.000322054 0
-9.76914e-005 0.000278157 0
-9.40539e-005 0.000234769 0
-7.71403e-005 0.000202586 0
-6.72181e-005 0.00016453 0
-6.2131e-005 0.000119422 0
-4.52335e-005 9.1793e-005 0
-3.21645e-005 7.12416e-005 0
-2.71575e-005 4.66997e-005 0
-1.92397e-005 2.18399e-005 0
-1.07982e-005 1.99755e-005 0
-1.11668e-005 1.21479e-005 0
-1.04596e-005 -4.91706e-006 0
-9.15705e-006 -1.22424e-005 0
-1.6688e-005 -1.23297e-005 0
-2.26396e-005 -3.4124e-005 0
-2.61947e-005 -5.46667e-005 0
-3.73875e-005 -7.07187e-005 0