# vtk DataFile Version 4.0
SiwiRVisFile
ASCII
DATASET STRUCTURED_POINTS
DIMENSIONS 5 5 1
ORIGIN 0 0 0
SPACING 1 1 1
POINT_DATA 25

SCALARS flags double 1
LOOKUP_TABLE default
1
1
1
1
1
1
1
1
1
1
1
1
1
1
1
1
1
1
1
1
1
1
1
1
1

SCALARS density double 1
LOOKUP_TABLE default
0.971725
1.00992
1.00034
0.987975
1.02908
0.995301
1.00975
1.00145
0.989817
1.00331
1.01108
0.979065
1.00052
1.02037
0.988026
0.99378
0.977458
1.00008
1.02098
1.00651
0.971081
1.02858
1.00076
0.969966
1.03309

VECTORS velocity double
-0.00138691 0.00485515 0
-0.00647114 -0.000437219 0
0.00263237 -0.000622739 0
-0.00588153 0.000777474 0
-0.00118564 -0.004649 0
0.00397495 0.0101618 0
0.0011074 6.46884e-005 0
-0.00701606 -0.000398591 0
0.000918637 0.000430361 0
0.00437343 -0.00977041 0
0.0035882 -0.00134813 0
-0.00601023 0.0147035 0
-0.0306243 0.000571747 0
-0.00559425 -0.0144257 0
0.00386006 0.000522117 0
-0.00890867 0.0188265 0
-0.0202078 0.0131457 0
-0.007079 0.000125069 0
-0.0203279 -0.0127436 0
-0.00932034 -0.0212254 0
0.0266186 0.0177931 0
0.0383248 -0.00136114 0
0.032749 1.07205e-005 0
0.0398333 0.00146927 0
0.0300823 -0.019243 0
