# vtk DataFile Version 4.0
SiwiRVisFile
ASCII
DATASET STRUCTURED_POINTS
DIMENSIONS 5 5 1
ORIGIN 0 0 0
SPACING 1 1 1
POINT_DATA 25

SCALARS flags double 1
LOOKUP_TABLE default
1
1
1
1
1
1
1
1
1
1
1
1
1
1
1
1
1
1
1
1
1
1
1
1
1

SCALARS density double 1
LOOKUP_TABLE default
0.983512
1.03788
0.99991
0.962268
1.01746
0.986716
1.0326
1.00059
0.96841
1.01193
1.02154
0.946461
0.999029
1.05288
0.9777
1.00191
0.984169
0.998029
1.01362
0.99848
0.973611
1.05996
0.998614
0.939756
1.03296

VECTORS velocity double
-0.00149356 0.00164014 0
-0.00308467 -0.00202654 0
0.00112372 -0.000456286 0
-0.00182241 0.00331273 0
-0.00156288 -0.00111472 0
3.39352e-005 0.00464645 0
-0.00923036 0.000636517 0
-0.0163025 -0.000860449 0
-0.00965486 -0.00204076 0
0.00102172 -0.00386047 0
-0.00144785 0.00637568 0
-0.0146731 0.020196 0
-0.0220048 -0.000123184 0
-0.0148103 -0.020323 0
-0.00221018 -0.00410684 0
-0.00756004 0.0176658 0
-0.00841453 0.0225604 0
-0.00302593 -0.000770922 0
-0.0111118 -0.0206765 0
-0.00517346 -0.0183492 0
0.022182 0.0128239 0
0.0460965 0.00281497 0
0.0525068 8.18485e-005 0
0.0452475 -0.00417412 0
0.0291218 -0.0159696 0
