# vtk DataFile Version 4.0
SiwiRVisFile
ASCII
DATASET STRUCTURED_POINTS
DIMENSIONS 50 50 1
ORIGIN 0 0 0
SPACING 1 1 1
POINT_DATA 2500

SCALARS flags double 1
LOOKUP_TABLE default
1
1
1
1
1
1
1
1
1
1
1
1
1
1
1
1
1
1
1
1
1
1
1
1
1
1
1
1
1
1
1
1
1
1
1
1
1
1
1
1
1
1
1
1
1
1
1
1
1
1
1
1
1
1
1
1
1
1
1
1
1
1
1
1
1
1
1
1
1
1
1
1
1
1
1
1
1
1
1
1
1
1
1
1
1
1
1
1
1
1
1
1
1
1
1
1
1
1
1
1
1
1
1
1
1
1
1
1
1
1
1
1
1
1
1
1
1
1
1
1
1
1
1
1
1
1
1
1
1
1
1
1
1
1
1
1
1
1
1
1
1
1
1
1
1
1
1
1
1
1
1
1
1
1
1
1
1
1
1
1
1
1
1
1
1
1
1
1
1
1
1
1
1
1
1
1
1
1
1
1
1
1
1
1
1
1
1
1
1
1
1
1
1
1
1
1
1
1
1
1
1
1
1
1
1
1
1
1
1
1
1
1
1
1
1
1
1
1
1
1
1
1
1
1
1
1
1
1
1
1
1
1
1
1
1
1
1
1
1
1
1
1
1
1
1
1
1
1
1
1
1
1
1
1
1
1
1
1
1
1
1
1
1
1
1
1
1
1
1
1
1
1
1
1
1
1
1
1
1
1
1
1
1
1
1
1
1
1
1
1
1
1
1
1
1
1
1
1
1
1
1
1
1
1
1
1
1
1
1
1
1
1
1
1
1
1
1
1
1
1
1
1
1
1
1
1
1
1
1
1
1
1
1
1
1
1
1
1
1
1
1
1
1
1
1
1
1
1
1
1
1
1
1
1
1
1
1
1
1
1
1
1
1
1
1
1
1
1
1
1
1
1
1
1
1
1
1
1
1
1
1
1
1
1
1
1
1
1
1
1
1
1
1
1
1
1
1
1
1
1
1
1
1
1
1
1
1
1
1
1
1
1
1
1
1
1
1
1
1
1
1
1
1
1
1
1
1
1
1
1
1
1
1
1
1
1
1
1
1
1
1
1
1
1
1
1
1
1
1
1
1
1
1
1
1
1
1
1
1
1
1
1
1
1
1
1
1
1
1
1
1
1
1
1
1
1
1
1
1
1
1
1
1
1
1
1
1
1
1
1
1
1
1
1
1
1
1
1
1
1
1
1
1
1
1
1
1
1
1
1
1
1
1
1
1
1
1
1
1
1
1
1
1
1
1
1
1
1
1
1
1
1
1
1
1
1
1
1
1
1
1
1
1
1
1
1
1
1
1
1
1
1
1
1
1
1
1
1
1
1
1
1
1
1
1
1
1
1
1
1
1
1
1
1
1
1
1
1
1
1
1
1
1
1
1
1
1
1
1
1
1
1
1
1
1
1
1
1
1
1
1
1
1
1
1
1
1
1
1
1
1
1
1
1
1
1
1
1
1
1
1
1
1
1
1
1
1
1
1
1
1
1
1
1
1
1
1
1
1
1
1
1
1
1
1
1
1
1
1
1
1
1
1
1
1
1
1
1
1
1
1
1
1
1
1
1
1
1
1
1
1
1
1
1
1
1
1
1
1
1
1
1
1
1
1
1
1
1
1
1
1
1
1
1
1
1
1
1
1
1
1
1
1
1
1
1
1
1
1
1
1
1
1
1
1
1
1
1
1
1
1
1
1
1
1
1
1
1
1
1
1
1
1
1
1
1
1
1
1
1
1
1
1
1
1
1
1
1
1
1
1
1
1
1
1
1
1
1
1
1
1
1
1
1
1
1
1
1
1
1
1
1
1
1
1
1
1
1
1
1
1
1
1
1
1
1
1
1
1
1
1
1
1
1
1
1
1
1
1
1
1
1
1
1
1
1
1
1
1
1
1
1
1
1
1
1
1
1
1
1
1
1
1
1
1
1
1
1
1
1
1
1
1
1
1
1
1
1
1
1
1
1
1
1
1
1
1
1
1
1
1
1
1
1
1
1
1
1
1
1
1
1
1
1
1
1
1
1
1
1
1
1
1
1
1
1
1
1
1
1
1
1
1
1
1
1
1
1
1
1
1
1
1
1
1
1
1
1
1
1
1
1
1
1
1
1
1
1
1
1
1
1
1
1
1
1
1
1
1
1
1
1
1
1
1
1
1
1
1
1
1
1
1
1
1
1
1
1
1
1
1
1
1
1
1
1
1
1
1
1
1
1
1
1
1
1
1
1
1
1
1
1
1
1
1
1
1
1
1
1
1
1
1
1
1
1
1
1
1
1
1
1
1
1
1
1
1
1
1
1
1
1
1
1
1
1
1
1
1
1
1
1
1
1
1
1
1
1
1
1
1
1
1
1
1
1
1
1
1
1
1
1
1
1
1
1
1
1
1
1
1
1
1
1
1
1
1
1
1
1
1
1
1
1
1
1
1
1
1
1
1
1
1
1
1
1
1
1
1
1
1
1
1
1
1
1
1
1
1
1
1
1
1
1
1
1
1
1
1
1
1
1
1
1
1
1
1
1
1
1
1
1
1
1
1
1
1
1
1
1
1
1
1
1
1
1
1
1
1
1
1
1
1
1
1
1
1
1
1
1
1
1
1
1
1
1
1
1
1
1
1
1
1
1
1
1
1
1
1
1
1
1
1
1
1
1
1
1
1
1
1
1
1
1
1
1
1
1
1
1
1
1
1
1
1
1
1
1
1
1
1
1
1
1
1
1
1
1
1
1
1
1
1
1
1
1
1
1
1
1
1
1
1
1
1
1
1
1
1
1
1
1
1
1
1
1
1
1
1
1
1
1
1
1
1
1
1
1
1
1
1
1
1
1
1
1
1
1
1
1
1
1
1
1
1
1
1
1
1
1
1
1
1
1
1
1
1
1
1
1
1
1
1
1
1
1
1
1
1
1
1
1
1
1
1
1
1
1
1
1
1
1
1
1
1
1
1
1
1
1
1
1
1
1
1
1
1
1
1
1
1
1
1
1
1
1
1
1
1
1
1
1
1
1
1
1
1
1
1
1
1
1
1
1
1
1
1
1
1
1
1
1
1
1
1
1
1
1
1
1
1
1
1
1
1
1
1
1
1
1
1
1
1
1
1
1
1
1
1
1
1
1
1
1
1
1
1
1
1
1
1
1
1
1
1
1
1
1
1
1
1
1
1
1
1
1
1
1
1
1
1
1
1
1
1
1
1
1
1
1
1
1
1
1
1
1
1
1
1
1
1
1
1
1
1
1
1
1
1
1
1
1
1
1
1
1
1
1
1
1
1
1
1
1
1
1
1
1
1
1
1
1
1
1
1
1
1
1
1
1
1
1
1
1
1
1
1
1
1
1
1
1
1
1
1
1
1
1
1
1
1
1
1
1
1
1
1
1
1
1
1
1
1
1
1
1
1
1
1
1
1
1
1
1
1
1
1
1
1
1
1
1
1
1
1
1
1
1
1
1
1
1
1
1
1
1
1
1
1
1
1
1
1
1
1
1
1
1
1
1
1
1
1
1
1
1
1
1
1
1
1
1
1
1
1
1
1
1
1
1
1
1
1
1
1
1
1
1
1
1
1
1
1
1
1
1
1
1
1
1
1
1
1
1
1
1
1
1
1
1
1
1
1
1
1
1
1
1
1
1
1
1
1
1
1
1
1
1
1
1
1
1
1
1
1
1
1
1
1
1
1
1
1
1
1
1
1
1
1
1
1
1
1
1
1
1
1
1
1
1
1
1
1
1
1
1
1
1
1
1
1
1
1
1
1
1
1
1
1
1
1
1
1
1
1
1
1
1
1
1
1
1
1
1
1
1
1
1
1
1
1
1
1
1
1
1
1
1
1
1
1
1
1
1
1
1
1
1
1
1
1
1
1
1
1
1
1
1
1
1
1
1
1
1
1
1
1
1
1
1
1
1
1
1
1
1
1
1
1
1
1
1
1
1
1
1
1
1
1
1
1
1
1
1
1
1
1
1
1
1
1
1
1
1
1
1
1
1
1
1
1
1
1
1
1
1
1
1
1
1
1
1
1
1
1
1
1
1
1
1
1
1
1
1
1
1
1
1
1
1
1
1
1
1
1
1
1
1
1
1
1
1
1
1
1
1
1
1
1
1
1
1
1
1
1
1
1
1
1
1
1
1
1
1
1
1
1
1
1
1
1
1
1
1
1
1
1
1
1
1
1
1
1
1
1
1
1
1
1
1
1
1
1
1
1
1
1
1
1
1
1
1
1
1
1
1
1
1
1
1
1
1
1
1
1
1
1
1
1
1
1
1
1
1
1
1
1
1
1
1
1
1
1
1
1
1
1
1
1
1
1
1
1
1
1
1
1
1
1
1
1
1
1
1
1
1
1
1
1
1
1
1
1
1
1
1
1
1
1
1
1
1
1
1
1
1
1
1
1
1
1
1
1
1
1
1
1
1
1
1
1
1
1
1
1
1
1
1
1
1
1
1
1
1
1
1
1
1
1
1
1
1
1
1
1
1
1
1
1
1
1
1
1
1
1
1
1
1
1
1
1
1
1
1
1
1
1
1
1
1
1
1
1
1
1
1
1
1
1
1
1
1
1
1
1
1
1
1
1
1
1
1
1
1
1
1
1
1
1
1
1
1
1
1
1
1
1
1
1
1
1
1
1
1
1
1
1
1
1
1
1
1
1
1
1
1
1
1
1
1
1
1
1
1
1
1
1
1
1
1
1
1
1
1
1
1
1
1
1
1
1
1
1
1
1
1
1
1
1
1
1
1
1
1
1
1
1
1
1
1
1
1
1
1
1
1
1
1
1
1
1
1
1
1
1
1
1
1
1
1
1
1
1
1
1
1
1
1
1
1
1
1
1
1
1
1
1
1
1
1
1
1
1
1
1
1
1
1
1
1
1
1
1
1
1
1
1
1
1
1
1
1
1
1
1
1
1
1
1
1
1
1
1
1
1
1
1
1
1
1
1
1
1
1
1
1
1
1
1
1
1
1
1
1
1
1
1
1
1
1
1
1
1
1
1
1
1
1
1
1
1
1
1
1
1
1
1
1
1
1
1
1
1
1
1
1
1
1
1
1
1
1
1
1
1
1
1
1
1
1
1
1
1
1
1
1
1
1
1
1
1
1
1
1
1
1
1
1
1
1
1
1
1
1
1
1
1
1
1
1
1
1
1
1
1
1
1
1
1
1
1
1
1
1
1
1
1
1
1
1
1
1
1
1
1
1
1
1
1
1
1
1
1
1
1
1
1
1
1
1
1
1
1
1
1
1
1
1
1
1
1
1
1
1
1
1
1
1
1
1
1
1
1
1
1
1
1
1
1
1
1
1
1
1
1
1
1
1
1
1
1
1
1
1
1
1
1
1
1
1
1
1
1
1
1
1
1
1
1
1
1
1
1
1
1
1
1
1
1
1
1
1
1
1
1
1
1
1
1
1
1
1
1
1
1
1
1
1
1
1
1
1
1
1
1
1
1
1
1
1
1
1
1
1
1
1
1
1
1
1
1
1
1
1
1
1
1
1
1
1
1
1
1
1
1
1
1
1
1
1
1
1
1
1
1
1
1
1
1
1
1
1
1
1
1
1
1
1
1
1
1
1
1
1
1
1
1
1
1
1
1
1
1
1
1
1
1
1
1
1
1
1
1
1
1
1
1
1
1
1
1
1
1
1
1
1
1
1
1
1
1
1
1
1
1
1
1
1
1
1
1
1
1
1
1
1
1
1
1
1

SCALARS density double 1
LOOKUP_TABLE default
0.99786
0.997763
0.997643
0.99767
0.997647
0.997662
0.997685
0.997712
0.997763
0.997849
0.997946
0.998003
0.998137
0.998304
0.998419
0.998556
0.99876
0.998939
0.999062
0.999246
0.999444
0.999558
0.99966
0.999823
0.999935
0.999991
1.0001
1.00025
1.00032
1.00041
1.00057
1.00071
1.00078
1.00091
1.00105
1.00113
1.00119
1.00131
1.0014
1.00141
1.00148
1.00154
1.00157
1.00158
1.0016
1.00161
1.00159
1.00162
1.00156
1.00149
0.997828
0.997754
0.997685
0.997782
0.997707
0.997734
0.997781
0.997816
0.997824
0.997908
0.997983
0.998033
0.998128
0.998259
0.998363
0.998471
0.998635
0.998797
0.998927
0.999092
0.999284
0.999433
0.999566
0.99974
0.999892
1
1.00014
1.00029
1.0004
1.00051
1.00066
1.00078
1.00086
1.00097
1.00108
1.00114
1.00121
1.00129
1.00135
1.00138
1.00143
1.00149
1.00149
1.00151
1.00155
1.00158
1.00152
1.00159
1.00155
1.0015
0.997744
0.99779
0.997825
0.997816
0.997856
0.997894
0.997911
0.997935
0.99801
0.998012
0.998043
0.998135
0.99817
0.998185
0.998293
0.998417
0.99845
0.998558
0.998751
0.998878
0.998985
0.99921
0.999449
0.999581
0.999777
1.00004
1.00022
1.00033
1.00053
1.00071
1.00077
1.00085
1.001
1.00107
1.00106
1.00116
1.00124
1.00124
1.00126
1.00135
1.00137
1.00136
1.00143
1.00145
1.00145
1.00148
1.00152
1.00151
1.00151
1.00155
0.997781
0.997877
0.99794
0.997912
0.997997
0.99806
0.998054
0.998097
0.998161
0.99817
0.998189
0.998216
0.99826
0.998258
0.998284
0.998325
0.998369
0.99842
0.998508
0.998636
0.998773
0.998966
0.999191
0.999446
0.9997
0.999982
1.00023
1.00045
1.00064
1.00079
1.0009
1.00099
1.00105
1.00109
1.00113
1.00116
1.00119
1.0012
1.00125
1.00127
1.0013
1.00132
1.00135
1.0014
1.00139
1.00143
1.00148
1.00146
1.00149
1.00153
0.997904
0.997919
0.998021
0.998036
0.998087
0.998084
0.998178
0.998211
0.998208
0.998292
0.998329
0.998321
0.998332
0.998406
0.998365
0.998331
0.998396
0.998418
0.998396
0.998481
0.998669
0.998789
0.998977
0.99931
0.999637
0.999865
1.00018
1.0005
1.00068
1.00078
1.00096
1.00104
1.00103
1.00107
1.00115
1.00115
1.00112
1.00121
1.00124
1.00124
1.00127
1.00135
1.00134
1.00136
1.00143
1.00143
1.00144
1.00145
1.00152
1.0015
0.998042
0.998019
0.998067
0.998087
0.998098
0.998103
0.998161
0.998197
0.998216
0.998259
0.998336
0.998358
0.998392
0.998424
0.99846
0.99847
0.998462
0.998479
0.998514
0.998561
0.998625
0.998784
0.998989
0.999208
0.999485
0.999807
1.00009
1.00032
1.00055
1.00075
1.00084
1.00094
1.00102
1.00108
1.0011
1.00114
1.0012
1.00123
1.00127
1.00129
1.00135
1.00138
1.0014
1.00142
1.00144
1.00146
1.00145
1.00147
1.00149
1.00147
0.998135
0.998164
0.998143
0.998077
0.998131
0.998153
0.99809
0.998136
0.998175
0.998198
0.998185
0.998289
0.998355
0.998348
0.998445
0.998542
0.998556
0.998593
0.998721
0.998784
0.998808
0.998963
0.999131
0.999249
0.99941
0.999694
0.999893
1.00007
1.0003
1.00054
1.00066
1.00079
1.00098
1.00106
1.00111
1.00121
1.00131
1.0013
1.00134
1.00143
1.00141
1.00142
1.00145
1.0015
1.00144
1.00146
1.00151
1.00147
1.00144
1.00147
0.998273
0.998243
0.998237
0.99822
0.998201
0.998208
0.998185
0.998155
0.998155
0.998165
0.998151
0.998172
0.998216
0.998301
0.998346
0.998457
0.998609
0.998758
0.99887
0.999025
0.999213
0.999266
0.999335
0.999422
0.999509
0.999507
0.999641
0.999816
0.999995
1.00016
1.00046
1.0007
1.00086
1.00104
1.0012
1.0013
1.00133
1.00142
1.00144
1.00145
1.00145
1.00147
1.00147
1.00145
1.00146
1.00147
1.00144
1.00146
1.00146
1.00144
0.998414
0.998298
0.998337
0.998393
0.998306
0.998283
0.99831
0.998302
0.99821
0.998209
0.998242
0.998157
0.998159
0.998232
0.998315
0.998362
0.998584
0.998831
0.999006
0.999252
0.999491
0.999609
0.999604
0.999648
0.999576
0.999485
0.99945
0.999581
0.999682
0.999905
1.00022
1.00054
1.00076
1.00101
1.00124
1.0013
1.00138
1.00144
1.00147
1.00141
1.00145
1.00148
1.00142
1.00143
1.00146
1.00146
1.00139
1.00144
1.00148
1.00141
0.998402
0.998373
0.998352
0.998326
0.998344
0.998338
0.998313
0.998337
0.998335
0.998306
0.998265
0.998308
0.998259
0.998258
0.998338
0.998478
0.998597
0.998819
0.999156
0.999402
0.999574
0.999781
0.999888
0.999763
0.99964
0.999579
0.999481
0.999387
0.999541
0.999792
1.00002
1.00029
1.00068
1.00092
1.00107
1.00125
1.00136
1.00139
1.00138
1.00146
1.00143
1.00142
1.00145
1.00148
1.00145
1.00146
1.00149
1.00147
1.00144
1.00146
0.998299
0.998329
0.998277
0.998187
0.998234
0.998294
0.99821
0.998247
0.998334
0.998324
0.998314
0.998375
0.998449
0.998435
0.998501
0.998686
0.998812
0.99897
0.999225
0.999467
0.99962
0.999761
0.999872
0.999826
0.999764
0.999673
0.999594
0.999515
0.999576
0.999705
0.999859
1.00013
1.00041
1.00066
1.00085
1.00109
1.00123
1.00127
1.00137
1.00143
1.00145
1.00144
1.0015
1.00154
1.00147
1.00152
1.00155
1.00151
1.00147
1.00152
0.998216
0.998142
0.998145
0.998167
0.998123
0.998125
0.998161
0.998191
0.998151
0.998265
0.998328
0.99837
0.998478
0.998665
0.998797
0.998894
0.99913
0.999297
0.999351
0.999458
0.999623
0.999649
0.999626
0.999805
0.999841
0.999788
0.999763
0.999851
0.999738
0.999675
0.999815
0.999945
1.00007
1.00031
1.00066
1.00083
1.00102
1.00125
1.00137
1.0014
1.00146
1.00156
1.00151
1.00152
1.00157
1.00157
1.00152
1.00157
1.00159
1.00154
0.998119
0.998053
0.998072
0.998176
0.998115
0.998097
0.998133
0.998163
0.998109
0.998156
0.998286
0.998383
0.998501
0.998766
0.999019
0.999222
0.999394
0.999582
0.999601
0.999547
0.999527
0.9995
0.999541
0.999612
0.999796
0.999922
1.00004
1.00001
0.999954
0.999835
0.999761
0.999727
0.999804
1.00006
1.0003
1.0006
1.00088
1.00116
1.00129
1.0014
1.00152
1.00155
1.00153
1.00156
1.00158
1.00158
1.00153
1.00161
1.00162
1.00158
0.997963
0.998107
0.998092
0.998068
0.99813
0.998174
0.998068
0.998119
0.998193
0.998182
0.99821
0.998422
0.998656
0.998793
0.999142
0.999466
0.999636
0.999689
0.999789
0.999719
0.999482
0.999449
0.999512
0.999537
0.999675
1.00002
1.00014
1.00012
1.0001
1.00002
0.99973
0.999625
0.999733
0.999817
1.00002
1.00038
1.00077
1.00094
1.00119
1.00143
1.00147
1.00149
1.00157
1.00164
1.00154
1.00159
1.00164
1.00161
1.00156
1.00168
0.997947
0.998059
0.998048
0.998033
0.998048
0.998123
0.998105
0.998112
0.998205
0.998288
0.998357
0.998516
0.998766
0.999032
0.999235
0.999513
0.999723
0.999786
0.99976
0.999726
0.999646
0.999515
0.999496
0.999611
0.999759
0.999889
1.00005
1.00018
1.00017
1.00001
0.999892
0.999777
0.999682
0.999713
0.999911
1.0002
1.00044
1.00078
1.00107
1.00126
1.00139
1.0015
1.00158
1.0016
1.0016
1.00166
1.00164
1.00165
1.00162
1.00167
0.998054
0.997964
0.998
0.998138
0.998024
0.99803
0.998166
0.998251
0.998186
0.998381
0.998651
0.998736
0.998946
0.999289
0.999483
0.99952
0.99967
0.999796
0.999666
0.99964
0.999738
0.999718
0.999641
0.999731
0.999839
0.999779
0.99991
1.00008
1.00007
1.00004
1.00008
0.999985
0.999739
0.999761
0.999875
0.999927
1.00017
1.00056
1.00086
1.00102
1.00131
1.00152
1.00148
1.00155
1.00167
1.00168
1.00156
1.00168
1.00172
1.00162
0.998051
0.998059
0.998041
0.9981
0.998067
0.998094
0.99811
0.998221
0.998308
0.998451
0.998698
0.999023
0.999227
0.99942
0.999637
0.999687
0.999602
0.999545
0.999643
0.999626
0.999666
0.999831
0.999935
0.999879
0.999785
0.999845
0.999803
0.99981
0.999977
1.00017
1.00017
1.00007
1.00007
0.999907
0.999751
0.999802
1.00005
1.00029
1.00057
1.00096
1.00123
1.00139
1.00153
1.00164
1.00164
1.00167
1.00166
1.00169
1.00166
1.00169
0.998023
0.998179
0.998075
0.997972
0.998048
0.99819
0.998032
0.998111
0.998405
0.99858
0.998746
0.99913
0.99952
0.999566
0.999644
0.999766
0.999614
0.999452
0.999502
0.999644
0.999676
0.999843
1.00006
0.999984
0.999876
0.99982
0.99976
0.999702
0.999933
1.00014
1.00018
1.00027
1.00024
1.00002
0.99979
0.999846
0.999921
1.00001
1.00041
1.00083
1.00106
1.00127
1.00157
1.00169
1.00159
1.00172
1.0018
1.00173
1.00162
1.00176
0.998107
0.998046
0.997975
0.998083
0.99798
0.998045
0.998155
0.998284
0.998398
0.998768
0.999056
0.999246
0.999523
0.999757
0.999723
0.999571
0.999637
0.999571
0.999443
0.999552
0.999819
0.999889
0.999881
1.00004
0.999998
0.999806
0.999731
0.999885
0.999881
0.999953
1.00025
1.00038
1.00024
1.00011
1.00011
0.999864
0.999762
0.999983
1.00026
1.00048
1.00083
1.00125
1.00139
1.00154
1.00171
1.00178
1.00169
1.00182
1.00179
1.00172
0.998117
0.997905
0.997936
0.998179
0.998004
0.998017
0.99829
0.998531
0.998584
0.998889
0.999352
0.999459
0.999518
0.99968
0.9997
0.999502
0.99946
0.999592
0.999575
0.999601
0.999768
0.99985
0.999851
0.999903
0.999972
0.999901
0.999909
0.999921
0.999913
0.999982
1.00018
1.00028
1.00029
1.00038
1.00025
0.999987
0.999904
0.99999
1.00006
1.00023
1.00071
1.00106
1.00121
1.00146
1.00171
1.00176
1.00165
1.00184
1.00189
1.00176
0.997882
0.998079
0.998007
0.997944
0.998051
0.998268
0.998245
0.998505
0.998927
0.999145
0.999309
0.99964
0.999726
0.99949
0.99949
0.999555
0.99944
0.999445
0.999724
0.999821
0.999653
0.999764
0.999885
0.999766
0.999809
1.00006
1.0001
0.99993
0.999985
1.00011
0.999992
1.0001
1.00043
1.00045
1.00028
1.00024
1.00016
0.999855
0.999905
1.00027
1.00048
1.00075
1.00123
1.00153
1.00153
1.00174
1.00189
1.00181
1.00174
1.00196
0.997788
0.99805
0.997931
0.997838
0.997992
0.998294
0.998277
0.998514
0.999035
0.999366
0.999454
0.99963
0.999772
0.999574
0.99936
0.99944
0.999533
0.999519
0.999674
0.999819
0.9998
0.999687
0.999695
0.999775
0.999851
1.00001
1.0001
1.00015
1.00012
0.999996
0.999999
1.00016
1.00033
1.00037
1.00046
1.00047
1.00018
0.999932
0.999988
1.0001
1.00025
1.00063
1.00114
1.00142
1.00152
1.00179
1.00193
1.0019
1.00182
1.00199
0.997965
0.997739
0.997803
0.998126
0.998035
0.998099
0.998572
0.99894
0.999042
0.999463
0.999825
0.999663
0.999547
0.999628
0.999508
0.999289
0.999504
0.999751
0.999617
0.999673
0.999833
0.999724
0.999565
0.99976
0.999973
0.999893
1.00007
1.00029
1.00016
1.00001
1.00012
1.00022
1.00011
1.00038
1.00066
1.00045
1.00027
1.00026
1.00006
0.999838
1.00016
1.0006
1.00073
1.00112
1.00164
1.00174
1.00167
1.00198
1.00209
1.00185
0.997824
0.997754
0.997843
0.998088
0.998123
0.9983
0.998694
0.999139
0.999323
0.999494
0.999697
0.999675
0.999429
0.999363
0.999479
0.999488
0.999494
0.999625
0.999782
0.999661
0.999635
0.999714
0.999759
0.999762
0.999796
1.00004
1.00009
1.00011
1.00017
1.00024
1.00018
1.00004
1.00023
1.00042
1.00047
1.00052
1.00062
1.00045
1.00012
1.00006
1.00019
1.00032
1.0006
1.00105
1.00141
1.00165
1.00177
1.00194
1.00202
1.00203
0.997599
0.998072
0.997979
0.99779
0.998239
0.998767
0.998725
0.999054
0.999646
0.99966
0.999358
0.999488
0.999572
0.999214
0.999307
0.999706
0.999673
0.999577
0.999721
0.999781
0.999525
0.999655
0.999917
0.999799
0.999817
1
1.00008
0.999968
1.00021
1.00037
1.00013
1.00015
1.0003
1.00027
1.00028
1.00067
1.00078
1.00039
1.00036
1.0004
1.00008
1.00007
1.00066
1.00103
1.00104
1.00154
1.002
1.00187
1.00177
1.00219
0.997874
0.997944
0.99793
0.998149
0.99835
0.998718
0.999083
0.999377
0.999582
0.999727
0.999611
0.999392
0.999374
0.999451
0.999447
0.999527
0.999781
0.999736
0.999576
0.999591
0.999738
0.999701
0.99971
0.999946
1.00001
0.999855
0.99988
1.00015
1.0002
1.00016
1.00034
1.00038
1.00021
1.00016
1.00047
1.00059
1.00056
1.00067
1.00059
1.00024
1.00008
1.00021
1.00036
1.00067
1.00115
1.00148
1.00165
1.00194
1.00198
1.00195
0.99813
0.997622
0.997898
0.998536
0.998437
0.998536
0.999332
0.999749
0.999431
0.999496
0.999785
0.99939
0.999087
0.999417
0.999652
0.999424
0.999524
0.999761
0.999573
0.999482
0.999708
0.999826
0.999756
0.999923
1.00001
0.999858
0.999911
1.0001
1.00009
1.0002
1.00045
1.00041
1.00021
1.00041
1.00054
1.00039
1.00064
1.00098
1.00071
1.00024
1.00038
1.00038
1.00009
1.00048
1.00125
1.00143
1.0014
1.00195
1.00225
1.00185
0.99772
0.998038
0.998138
0.998178
0.998615
0.999146
0.999274
0.99955
0.999796
0.999563
0.999289
0.999424
0.999409
0.999296
0.999516
0.999745
0.999544
0.999459
0.99972
0.999717
0.999593
0.999826
1.00006
0.999861
0.999818
1.00004
1.00005
0.999837
1.00004
1.00037
1.00028
1.00023
1.0005
1.00045
1.00022
1.00048
1.0008
1.00072
1.00069
1.00082
1.00045
1.00007
1.00033
1.00058
1.00068
1.00123
1.00178
1.00176
1.00184
1.00225
0.997634
0.998316
0.99821
0.99804
0.99879
0.999547
0.99937
0.999368
0.999812
0.999642
0.999093
0.999205
0.999644
0.999473
0.999425
0.999705
0.999696
0.999406
0.999543
0.999751
0.999753
0.999779
0.999905
0.999932
0.999869
1.00001
0.999972
1
1.00015
1.00021
1.00022
1.00043
1.00058
1.00033
1.0003
1.00061
1.00064
1.00054
1.00094
1.00103
1.00047
1.00023
1.00052
1.00052
1.00045
1.00111
1.00181
1.00178
1.00171
1.00224
0.998204
0.997711
0.998029
0.998901
0.99896
0.99903
0.999736
0.999836
0.999227
0.999291
0.999546
0.999213
0.999189
0.999723
0.999712
0.99933
0.999471
0.999736
0.999437
0.999527
0.999914
0.999893
0.999679
0.999896
1.00011
0.999807
0.999961
1.00026
1.00011
1.00001
1.00037
1.00057
1.0003
1.0005
1.00074
1.00041
1.00037
1.00095
1.001
1.00065
1.00084
1.00088
1.00021
1.00021
1.00096
1.00103
1.00104
1.00192
1.00231
1.00177
0.99799
0.997681
0.998182
0.999027
0.999066
0.999126
0.999679
0.999855
0.999262
0.999126
0.999501
0.999478
0.999257
0.9995
0.999755
0.999429
0.999349
0.999609
0.999766
0.99963
0.999797
0.999934
0.999885
0.999891
0.999889
1.00003
1.00007
1.00007
1.00002
1.00016
1.00033
1.00022
1.00039
1.0007
1.00065
1.00037
1.00061
1.00089
1.00075
1.00079
1.00108
1.00086
1.00033
1.0004
1.0008
1.00095
1.0011
1.00172
1.0022
1.0021
0.997402
0.998539
0.998662
0.998224
0.999238
1.00003
0.99934
0.999122
0.999791
0.999474
0.998867
0.99942
0.99986
0.999265
0.999191
0.999669
0.999548
0.999318
0.999688
0.999998
0.999642
0.999741
1
0.999835
0.999826
1.0001
1.00018
0.999949
1.00017
1.00036
1.00002
1.00022
1.00068
1.00058
1.00041
1.00084
1.00089
1.00036
1.00078
1.00143
1.0009
1.00048
1.00105
1.00082
1.00009
1.00079
1.00182
1.00142
1.00146
1.00255
0.997919
0.99842
0.998478
0.998745
0.9993
0.999696
0.999531
0.999267
0.999369
0.999452
0.999235
0.999288
0.999615
0.999595
0.999207
0.999304
0.999629
0.999592
0.999574
0.99974
0.99995
0.999754
0.999713
0.999949
1.00003
0.999975
0.999988
1.00024
1.00025
1.00004
1.00021
1.00046
1.00046
1.00041
1.00074
1.0009
1.00056
1.0006
1.001
1.00106
1.00095
1.00104
1.00095
1.00061
1.00059
1.00082
1.00122
1.00167
1.00177
1.00197
0.998692
0.997488
0.998282
0.999836
0.999337
0.998789
0.999834
0.999946
0.998741
0.998959
0.999953
0.999463
0.998999
0.999593
0.999763
0.999068
0.999291
0.999904
0.999666
0.999559
0.999903
0.999962
0.999671
0.999904
1.00013
0.999878
1.00004
1.0003
1.00007
1.00006
1.00044
1.00042
1.00013
1.00066
1.00102
1.00043
1.00053
1.00121
1.0009
1.00045
1.00139
1.00168
1.00048
1.00044
1.0014
1.00092
1.00042
1.00179
1.0026
1.0015
0.997882
0.998447
0.998938
0.999029
0.999465
0.999683
0.999405
0.99932
0.99942
0.999173
0.999222
0.999586
0.999464
0.999183
0.999336
0.999595
0.999333
0.999385
0.999782
0.999824
0.999683
0.999786
1.00002
0.999883
0.999831
1.00012
1.00018
0.999992
1.00013
1.00037
1.00029
1.00021
1.00058
1.00074
1.00049
1.00074
1.00104
1.0008
1.00069
1.0012
1.00128
1.00097
1.00119
1.00108
1.00055
1.00082
1.00142
1.00125
1.00161
1.00242
0.997565
0.999414
0.999171
0.998228
0.9995
1.00046
0.999042
0.998614
0.999801
0.999698
0.998675
0.999259
0.999952
0.999129
0.99892
0.999693
0.99982
0.999257
0.999554
0.999997
0.999718
0.999696
0.999967
0.999956
0.999895
1.0001
1.00011
1.00003
1.0003
1.00037
1.00008
1.00042
1.0008
1.00031
1.00034
1.00115
1.00112
1.00035
1.00096
1.00168
1.00084
1.00073
1.00186
1.00147
1.00013
1.00085
1.00201
1.00128
1.00099
1.00252
0.999122
0.998144
0.998604
0.999931
0.999561
0.998921
0.999712
0.999646
0.998876
0.999258
0.999802
0.99915
0.998881
0.999516
0.999512
0.999208
0.999506
0.999884
0.999546
0.999499
0.999907
0.99986
0.999683
0.999925
1.00012
0.999905
1.00002
1.00036
1.00025
1.00009
1.00047
1.00059
1.00024
1.00049
1.00092
1.00071
1.0006
1.0013
1.00125
1.00057
1.00119
1.00181
1.00099
1.0008
1.00174
1.00102
1.00039
1.00183
1.0024
1.00114
0.999074
0.997673
0.998745
1.00043
0.999436
0.998525
0.999695
1.00002
0.998737
0.998866
0.999876
0.999381
0.998501
0.99919
0.99975
0.999218
0.999295
0.999848
0.999822
0.999467
0.999667
0.99991
0.999829
0.999919
0.999997
1
1.00014
1.00024
1.00012
1.00032
1.0006
1.00033
1.00023
1.0008
1.00095
1.00039
1.00086
1.00168
1.001
1.00052
1.00157
1.00188
1.00081
1.00103
1.00199
1.00124
1.00041
1.00163
1.00264
1.00168
0.997428
0.999876
0.999817
0.998085
0.999548
1.00062
0.998828
0.998495
1.0001
0.99962
0.998475
0.999155
0.999739
0.998845
0.998887
0.999882
0.99973
0.999325
0.999739
1.00001
0.999527
0.999609
1.0001
0.999941
0.999824
1.00017
1.00019
0.999944
1.00033
1.0006
1.00016
1.00027
1.00082
1.00056
1.00021
1.0011
1.00138
1.00049
1.00097
1.00197
1.00107
1.00047
1.00219
1.00212
1.00016
1.00111
1.00274
1.0009
1.00063
1.00319
0.998358
0.999783
0.999264
0.998652
0.999587
1.00017
0.999131
0.998663
0.999614
0.999623
0.99868
0.998863
0.999428
0.999159
0.998873
0.999438
0.999779
0.999549
0.999624
0.999769
0.999682
0.999644
0.999818
0.999937
0.999978
1.00012
1.00008
1.00016
1.00041
1.0004
1.00028
1.00055
1.00073
1.0004
1.00061
1.00123
1.00102
1.00072
1.00137
1.00174
1.00097
1.00106
1.00206
1.00173
1.00099
1.0013
1.00188
1.00176
1.0013
1.00201
1.00057
0.997126
0.998509
1.00151
0.999488
0.99769
1.00008
1.00053
0.998055
0.998511
1.00016
0.999031
0.998119
0.999333
0.99984
0.998939
0.999266
1.00022
0.999798
0.999346
0.999755
0.999919
0.999667
0.999878
1.00016
0.999967
1.00011
1.00039
1.00019
1.00023
1.00074
1.00053
1.00002
1.0008
1.0013
1.00037
1.00056
1.00198
1.00145
1.00017
1.00175
1.00273
1.00049
1.00072
1.00334
1.00172
0.999512
1.00242
1.00385
1.00043
0.998377
0.998712
0.999582
0.999674
0.99952
0.999231
0.999342
0.999395
0.999238
0.998822
0.998896
0.999036
0.998829
0.999029
0.999305
0.999481
0.9995
0.999654
0.999825
0.999705
0.99963
0.999722
0.999886
0.999941
0.999945
1.00011
1.00018
1.00016
1.00025
1.00048
1.00051
1.00035
1.00054
1.00081
1.00076
1.00079
1.00111
1.00136
1.00113
1.00136
1.00168
1.00144
1.00154
1.00179
1.00173
1.00167
1.00197
1.00143
1.00206
1.00322
0.996982
1.00183
1.00036
0.996769
0.999689
1.00184
0.998284
0.997623
1.00035
0.999747
0.997447
0.998565
0.999943
0.998765
0.99854
0.999878
0.999959
0.99919
0.999564
1.00005
0.999552
0.999473
0.999948
0.999911
0.999892
1.00023
1.00019
1.00002
1.00052
1.00066
1.00013
1.00052
1.00114
1.00043
1.00019
1.00156
1.00159
1.00015
1.00126
1.00289
1.00096
1.00008
1.00304
1.00308
0.999589
1.0015
1.00457
1.00118
0.999709
1.00418
1.00066
0.998407
0.998597
1.00067
0.99966
0.998497
0.999716
0.999529
0.998477
0.998543
0.999135
0.998677
0.998405
0.99923
0.99955
0.999378
0.99952
0.999853
0.999716
0.999557
0.999781
0.999819
0.999708
0.999866
1.00008
1.00011
1.00014
1.00031
1.00034
1.00032
1.00054
1.00059
1.00047
1.00069
1.00099
1.00086
1.00086
1.00158
1.00154
1.00107
1.00167
1.00216
1.00138
1.0013
1.003
1.00206
1.00057
1.00326
1.00377
1.00052
1.00114
0.995901
0.998669
1.00289
0.999206
0.996826
1.00017
1.00072
0.997368
0.997751
0.999702
0.998685
0.997732
0.999198
0.999988
0.999165
0.999362
1.00011
0.999684
0.999313
0.999753
0.999862
0.999597
0.999869
1.00016
0.999991
1.0002
1.0005
1.00022
1.00025
1.00084
1.00063
1.00011
1.00094
1.00144
1.0004
1.0007
1.00234
1.00159
1.00017
1.00221
1.00336
1.00032
1.00062
1.00452
1.00277
0.999199
1.00318
1.0057
1.00129
0.995922
1.00204
1.00103
0.996722
0.99967
1.0016
0.998388
0.997373
0.999686
0.999156
0.997376
0.998305
0.999557
0.998981
0.99878
0.999937
1.0001
0.999391
0.999492
0.999838
0.999617
0.999517
0.999886
0.999981
0.999943
1.00018
1.00023
1.00021
1.00052
1.00055
1.00027
1.00057
1.00103
1.00054
1.00044
1.00152
1.00151
1.00056
1.00139
1.00271
1.00125
1.00044
1.00312
1.00303
0.999996
1.00196
1.00575
1.00117
1.00004
1.00723
0.998388
1.00293
0.999696
0.996249
1.00001
1.00148
0.997997
0.997386
0.999461
0.99857
0.99706
0.998228
0.999422
0.99886
0.999005
1.00005
1.00001
0.999451
0.999652
0.999813
0.999443
0.999523
0.999935
0.99989
0.999945
1.00031
1.0003
1.00013
1.00052
1.00063
1.00018
1.00048
1.00112
1.00063
1.00035
1.00151
1.00175
1.00056
1.00134
1.00291
1.00153
1.00038
1.00303
1.0034
1.00015
1.00166
1.00591
1.00282
1.00054
1.00412
1.00345
0.992179
0.996956
1.00471
0.999662
0.995738
0.999815
1.0006
0.99683
0.99696
0.999375
0.998702
0.997599
0.999401
1.00039
0.999489
0.999431
1.00015
0.999719
0.999093
0.999522
0.999824
0.999679
0.999926
1.00018
1.0001
1.00028
1.00055
1.00027
1.0003
1.00088
1.00062
1.00015
1.00104
1.00151
1.00043
1.00076
1.00265
1.00159
1.00005
1.00251
1.00371
0.999891
1.00047
1.00585
1.00301
0.997641
1.00586
1.01023
0.997783
0.997129
0.996754
0.999617
1.00132
0.998641
0.998633
0.999461
0.99846
0.997145
0.997895
0.998162
0.997872
0.998401
0.999629
0.999768
0.999718
0.999974
0.999987
0.999394
0.999308
0.999621
0.999641
0.999649
1.00008
1.00026
1.0001
1.00023
1.00057
1.00037
1.00022
1.00063
1.00077
1.00037
1.00074
1.00133
1.00109
1.0008
1.00188
1.00206
1.00111
1.00152
1.00288
1.00174
1.00089
1.00303
1.00412
1.00107
1.00339
1.00717
1.00793
0.995452
1.01038
1.0007
0.993755
1.00046
1.00353
0.997161
0.996339
0.999454
0.998512
0.995884
0.997945
0.999833
0.999042
0.99916
1.0007
1.00049
0.999333
0.999473
0.999662
0.999089
0.999231
0.999921
0.999988
1.00005
1.00054
1.00035
1.00009
1.00065
1.00068
0.999936
1.0005
1.00143
1.00044
1.00007
1.00205
1.00198
0.999907
1.00146
1.00411
1.00077
0.999256
1.00459
1.00429
0.997029
1.00254
1.01078
1.00003
0.995126
1.02262

VECTORS velocity double
0.000104809 0.000102852 0
9.31128e-005 0.000243939 0
2.03408e-005 0.000150384 0
1.29031e-005 0.000192732 0
-1.22404e-005 0.000147926 0
-2.91426e-005 0.000183396 0
-6.45127e-005 0.000160363 0
-7.44262e-005 0.000174011 0
-9.55064e-005 0.000167838 0
-0.000113523 0.000181832 0
-0.000128716 0.000168597 0
-0.000137022 0.000183109 0
-0.000151822 0.000178108 0
-0.000160011 0.000181072 0
-0.000157971 0.000169738 0
-0.000157733 0.000173306 0
-0.000155006 0.000160592 0
-0.000147002 0.000149399 0
-0.000133581 0.000134045 0
-0.00012135 0.00012189 0
-0.000106763 9.8078e-005 0
-9.08839e-005 7.8816e-005 0
-7.71966e-005 5.87836e-005 0
-6.7353e-005 3.80836e-005 0
-6.05878e-005 1.5306e-005 0
-5.82485e-005 -2.01462e-006 0
-6.07423e-005 -2.24818e-005 0
-6.67877e-005 -4.07392e-005 0
-7.57146e-005 -5.63834e-005 0
-8.55842e-005 -6.99837e-005 0
-9.48639e-005 -8.70509e-005 0
-0.000101892 -9.34133e-005 0
-0.000110108 -0.000102088 0
-0.000113219 -0.000107226 0
-0.000113571 -0.000114338 0
-0.000112677 -0.000107147 0
-0.000113145 -0.000114549 0
-0.00010592 -0.000110282 0
-9.43957e-005 -0.000113078 0
-8.86163e-005 -0.00010092 0
-7.73086e-005 -0.000110608 0
-6.5387e-005 -0.000101337 0
-5.06543e-005 -0.000104553 0
-4.45356e-005 -9.66386e-005 0
-2.26462e-005 -0.00011169 0
-8.65122e-006 -9.00895e-005 0
6.4782e-006 -0.000116731 0
1.06872e-005 -9.21669e-005 0
5.83917e-005 -0.000154684 0
6.71578e-005 -6.38925e-005 0
0.000107098 0.000268278 0
0.000127955 0.000635019 0
5.05881e-005 0.000497939 0
3.71114e-005 0.000519626 0
-2.00256e-005 0.000478959 0
-7.05069e-005 0.000514446 0
-0.000102235 0.000474583 0
-0.000132781 0.000486164 0
-0.000171221 0.00049604 0
-0.000200213 0.000503623 0
-0.000225419 0.000489396 0
-0.000247189 0.000507324 0
-0.00026321 0.000506688 0
-0.000274859 0.000504225 0
-0.000281011 0.000483361 0
-0.000278229 0.000484226 0
-0.000273756 0.00045468 0
-0.000261843 0.000423079 0
-0.000243302 0.000382385 0
-0.000220049 0.000345843 0
-0.000194988 0.000284565 0
-0.00016778 0.000230569 0
-0.0001448 0.000172622 0
-0.000124809 0.000112276 0
-0.000111244 4.88067e-005 0
-0.000107631 -4.34359e-006 0
-0.000111154 -6.30212e-005 0
-0.000119629 -0.000114541 0
-0.000134509 -0.000160613 0
-0.000153454 -0.000199336 0
-0.000167678 -0.000243579 0
-0.000181551 -0.000262118 0
-0.000193753 -0.000286395 0
-0.000200079 -0.000302189 0
-0.00019858 -0.000317548 0
-0.000199138 -0.000306771 0
-0.000193293 -0.000320528 0
-0.000183363 -0.000317827 0
-0.000170878 -0.000314341 0
-0.000155555 -0.000301128 0
-0.00013918 -0.000310406 0
-0.000117402 -0.000308152 0
-9.23692e-005 -0.000298685 0
-7.14042e-005 -0.000291923 0
-5.17125e-005 -0.000321304 0
-1.62566e-005 -0.000299224 0
2.11395e-005 -0.00032437 0
3.0778e-005 -0.000309034 0
8.21395e-005 -0.000406848 0
6.86346e-005 -0.000168577 0
6.46549e-005 0.000409115 0
8.18884e-005 0.000881185 0
4.67979e-005 0.000817637 0
1.59401e-006 0.000734515 0
-5.44336e-005 0.000772688 0
-6.1024e-005 0.000715197 0
-8.93914e-005 0.00072432 0
-0.000131288 0.000713945 0
-0.000162861 0.000719385 0
-0.000169076 0.000715784 0
-0.000198066 0.000728403 0
-0.000231549 0.000726477 0
-0.000242552 0.00073163 0
-0.000251752 0.000738088 0
-0.000271001 0.000727021 0
-0.000284998 0.000710374 0
-0.000277739 0.000693668 0
-0.000278375 0.000658695 0
-0.000279177 0.000605442 0
-0.000265933 0.000547996 0
-0.000245621 0.000478966 0
-0.000234312 0.000390967 0
-0.000216712 0.000292902 0
-0.000197826 0.000200636 0
-0.000187853 9.75273e-005 0
-0.000180332 -4.43794e-006 0
-0.00017554 -0.000102044 0
-0.000180957 -0.000180823 0
-0.00018529 -0.000258471 0
-0.000184838 -0.000326213 0
-0.000195817 -0.000372048 0
-0.000200988 -0.000405885 0
-0.000194866 -0.000437865 0
-0.000191592 -0.000456399 0
-0.000198422 -0.00045953 0