# vtk DataFile Version 4.0
SiwiRVisFile
ASCII
DATASET STRUCTURED_POINTS
DIMENSIONS 5 5 1
ORIGIN 0 0 0
SPACING 1 1 1
POINT_DATA 25

SCALARS flags double 1
LOOKUP_TABLE default
1
1
1
1
1
1
1
1
1
1
1
1
1
1
1
1
1
1
1
1
1
1
1
1
1

SCALARS density double 1
LOOKUP_TABLE default
0.983001
1.03738
1.00011
0.962808
1.0185
0.986134
1.03246
1.00051
0.968452
1.01278
1.02047
0.946124
0.999035
1.05305
0.978811
1.00116
0.984144
0.998067
1.01357
0.999059
0.972462
1.05931
0.99849
0.94056
1.03356

VECTORS velocity double
-0.00151756 0.00188535 0
-0.00270061 -0.00201508 0
0.00116357 -0.00108055 0
-0.00154945 0.00239322 0
-0.00144226 -0.00226292 0
1.52207e-005 0.00454821 0
-0.00872078 0.000672896 0
-0.0160954 -0.000138497 0
-0.00881099 -0.000604228 0
0.000592159 -0.00254275 0
-0.0018511 0.00642556 0
-0.013781 0.0203031 0
-0.0221518 -0.00057794 0
-0.0136776 -0.0215638 0
-0.00293008 -0.00614337 0
-0.00526676 0.0170965 0
-0.00891794 0.0204555 0
-0.00349376 -0.000333415 0
-0.00853913 -0.0204242 0
-0.00773618 -0.0167855 0
0.0224279 0.0148083 0
0.0471382 0.00531353 0
0.0513395 -7.22461e-005 0
0.0484946 -0.003635 0
0.0158819 -0.0118336 0
