# vtk DataFile Version 4.0
SiwiRVisFile
ASCII
DATASET STRUCTURED_POINTS
DIMENSIONS 5 5 1
ORIGIN 0 0 0
SPACING 1 1 1
POINT_DATA 25

SCALARS flags double 1
LOOKUP_TABLE default
1
1
1
1
1
1
1
1
1
1
1
1
1
1
1
1
1
1
1
1
1
1
1
1
1

SCALARS density double 1
LOOKUP_TABLE default
0.983772
1.03809
0.9999
0.961968
1.01717
0.98693
1.03269
1.00055
0.968302
1.01165
1.02194
0.946699
0.999046
1.05262
0.977371
1.00221
0.984321
0.998102
1.0134
0.998234
0.973939
1.06021
0.998523
0.93971
1.03265

VECTORS velocity double
-0.00156718 0.00181601 0
-0.00289265 -0.00203965 0
0.000889447 -0.001094 0
-0.00171786 0.00236378 0
-0.00144643 -0.0022739 0
-0.000160917 0.00454564 0
-0.00909609 0.000766174 0
-0.0165313 -0.000108191 0
-0.00910232 -0.000744032 0
0.000469019 -0.0025965 0
-0.00193147 0.00660044 0
-0.014091 0.0204102 0
-0.0226481 -0.000595171 0
-0.0138383 -0.0217359 0
-0.00297539 -0.00624778 0
-0.00531734 0.01722 0
-0.00899529 0.0206575 0
-0.00364852 -0.000428377 0
-0.00867193 -0.0206386 0
-0.0077625 -0.0169079 0
0.0224297 0.0147299 0
0.0471069 0.00535916 0
0.0514788 -3.53476e-005 0
0.0483122 -0.00375781 0
0.0157359 -0.011734 0
