# vtk DataFile Version 4.0
SiwiRVisFile
ASCII
DATASET STRUCTURED_POINTS
DIMENSIONS 5 5 1
ORIGIN 0 0 0
SPACING 1 1 1
POINT_DATA 25

SCALARS flags double 1
LOOKUP_TABLE default
1
1
1
1
1
1
1
1
1
1
1
1
1
1
1
1
1
1
1
1
1
1
1
1
1

SCALARS density double 1
LOOKUP_TABLE default
0.9686
1.00642
1.00104
0.991062
1.03241
0.994637
1.0153
0.999793
0.984852
1.004
1.01054
0.992873
0.999192
1.00819
0.990591
0.982346
0.985666
1.00147
1.01131
1.01592
0.979438
1.03298
1.00152
0.964038
1.0258

VECTORS velocity double
-0.00298885 0.00352745 0
-0.0035276 -0.00137731 0
0.0010335 -0.00053415 0
-0.00288692 0.00160077 0
-0.00340392 -0.00364118 0
0.00106001 0.00724739 0
-0.00348865 -0.00343935 0
-0.00748722 -0.000267036 0
-0.00327411 0.00341886 0
0.00122001 -0.00740422 0
0.00416007 0.000849851 0
-0.0133644 0.0137386 0
-0.0217849 -0.000466663 0
-0.0128427 -0.0134862 0
0.00372877 -0.00190742 0
-0.0154119 0.0154688 0
-0.0163941 0.0141128 0
-0.0186596 -7.94232e-005 0
-0.0169501 -0.0136951 0
-0.0156177 -0.0154266 0
0.0233637 0.0203538 0
0.0430378 0.0017252 0
0.0408975 9.97114e-006 0
0.0414366 -0.000942782 0
0.021636 -0.0195138 0
