# vtk DataFile Version 4.0
SiwiRVisFile
ASCII
DATASET STRUCTURED_POINTS
DIMENSIONS 50 50 1
ORIGIN 0 0 0
SPACING 1 1 1
POINT_DATA 2500

SCALARS flags double 1
LOOKUP_TABLE default
1
1
1
1
1
1
1
1
1
1
1
1
1
1
1
1
1
1
1
1
1
1
1
1
1
1
1
1
1
1
1
1
1
1
1
1
1
1
1
1
1
1
1
1
1
1
1
1
1
1
1
1
1
1
1
1
1
1
1
1
1
1
1
1
1
1
1
1
1
1
1
1
1
1
1
1
1
1
1
1
1
1
1
1
1
1
1
1
1
1
1
1
1
1
1
1
1
1
1
1
1
1
1
1
1
1
1
1
1
1
1
1
1
1
1
1
1
1
1
1
1
1
1
1
1
1
1
1
1
1
1
1
1
1
1
1
1
1
1
1
1
1
1
1
1
1
1
1
1
1
1
1
1
1
1
1
1
1
1
1
1
1
1
1
1
1
1
1
1
1
1
1
1
1
1
1
1
1
1
1
1
1
1
1
1
1
1
1
1
1
1
1
1
1
1
1
1
1
1
1
1
1
1
1
1
1
1
1
1
1
1
1
1
1
1
1
1
1
1
1
1
1
1
1
1
1
1
1
1
1
1
1
1
1
1
1
1
1
1
1
1
1
1
1
1
1
1
1
1
1
1
1
1
1
1
1
1
1
1
1
1
1
1
1
1
1
1
1
1
1
1
1
1
1
1
1
1
1
1
1
1
1
1
1
1
1
1
1
1
1
1
1
1
1
1
1
1
1
1
1
1
1
1
1
1
1
1
1
1
1
1
1
1
1
1
1
1
1
1
1
1
1
1
1
1
1
1
1
1
1
1
1
1
1
1
1
1
1
1
1
1
1
1
1
1
1
1
1
1
1
1
1
1
1
1
1
1
1
1
1
1
1
1
1
1
1
1
1
1
1
1
1
1
1
1
1
1
1
1
1
1
1
1
1
1
1
1
1
1
1
1
1
1
1
1
1
1
1
1
1
1
1
1
1
1
1
1
1
1
1
1
1
1
1
1
1
1
1
1
1
1
1
1
1
1
1
1
1
1
1
1
1
1
1
1
1
1
1
1
1
1
1
1
1
1
1
1
1
1
1
1
1
1
1
1
1
1
1
1
1
1
1
1
1
1
1
1
1
1
1
1
1
1
1
1
1
1
1
1
1
1
1
1
1
1
1
1
1
1
1
1
1
1
1
1
1
1
1
1
1
1
1
1
1
1
1
1
1
1
1
1
1
1
1
1
1
1
1
1
1
1
1
1
1
1
1
1
1
1
1
1
1
1
1
1
1
1
1
1
1
1
1
1
1
1
1
1
1
1
1
1
1
1
1
1
1
1
1
1
1
1
1
1
1
1
1
1
1
1
1
1
1
1
1
1
1
1
1
1
1
1
1
1
1
1
1
1
1
1
1
1
1
1
1
1
1
1
1
1
1
1
1
1
1
1
1
1
1
1
1
1
1
1
1
1
1
1
1
1
1
1
1
1
1
1
1
1
1
1
1
1
1
1
1
1
1
1
1
1
1
1
1
1
1
1
1
1
1
1
1
1
1
1
1
1
1
1
1
1
1
1
1
1
1
1
1
1
1
1
1
1
1
1
1
1
1
1
1
1
1
1
1
1
1
1
1
1
1
1
1
1
1
1
1
1
1
1
1
1
1
1
1
1
1
1
1
1
1
1
1
1
1
1
1
1
1
1
1
1
1
1
1
1
1
1
1
1
1
1
1
1
1
1
1
1
1
1
1
1
1
1
1
1
1
1
1
1
1
1
1
1
1
1
1
1
1
1
1
1
1
1
1
1
1
1
1
1
1
1
1
1
1
1
1
1
1
1
1
1
1
1
1
1
1
1
1
1
1
1
1
1
1
1
1
1
1
1
1
1
1
1
1
1
1
1
1
1
1
1
1
1
1
1
1
1
1
1
1
1
1
1
1
1
1
1
1
1
1
1
1
1
1
1
1
1
1
1
1
1
1
1
1
1
1
1
1
1
1
1
1
1
1
1
1
1
1
1
1
1
1
1
1
1
1
1
1
1
1
1
1
1
1
1
1
1
1
1
1
1
1
1
1
1
1
1
1
1
1
1
1
1
1
1
1
1
1
1
1
1
1
1
1
1
1
1
1
1
1
1
1
1
1
1
1
1
1
1
1
1
1
1
1
1
1
1
1
1
1
1
1
1
1
1
1
1
1
1
1
1
1
1
1
1
1
1
1
1
1
1
1
1
1
1
1
1
1
1
1
1
1
1
1
1
1
1
1
1
1
1
1
1
1
1
1
1
1
1
1
1
1
1
1
1
1
1
1
1
1
1
1
1
1
1
1
1
1
1
1
1
1
1
1
1
1
1
1
1
1
1
1
1
1
1
1
1
1
1
1
1
1
1
1
1
1
1
1
1
1
1
1
1
1
1
1
1
1
1
1
1
1
1
1
1
1
1
1
1
1
1
1
1
1
1
1
1
1
1
1
1
1
1
1
1
1
1
1
1
1
1
1
1
1
1
1
1
1
1
1
1
1
1
1
1
1
1
1
1
1
1
1
1
1
1
1
1
1
1
1
1
1
1
1
1
1
1
1
1
1
1
1
1
1
1
1
1
1
1
1
1
1
1
1
1
1
1
1
1
1
1
1
1
1
1
1
1
1
1
1
1
1
1
1
1
1
1
1
1
1
1
1
1
1
1
1
1
1
1
1
1
1
1
1
1
1
1
1
1
1
1
1
1
1
1
1
1
1
1
1
1
1
1
1
1
1
1
1
1
1
1
1
1
1
1
1
1
1
1
1
1
1
1
1
1
1
1
1
1
1
1
1
1
1
1
1
1
1
1
1
1
1
1
1
1
1
1
1
1
1
1
1
1
1
1
1
1
1
1
1
1
1
1
1
1
1
1
1
1
1
1
1
1
1
1
1
1
1
1
1
1
1
1
1
1
1
1
1
1
1
1
1
1
1
1
1
1
1
1
1
1
1
1
1
1
1
1
1
1
1
1
1
1
1
1
1
1
1
1
1
1
1
1
1
1
1
1
1
1
1
1
1
1
1
1
1
1
1
1
1
1
1
1
1
1
1
1
1
1
1
1
1
1
1
1
1
1
1
1
1
1
1
1
1
1
1
1
1
1
1
1
1
1
1
1
1
1
1
1
1
1
1
1
1
1
1
1
1
1
1
1
1
1
1
1
1
1
1
1
1
1
1
1
1
1
1
1
1
1
1
1
1
1
1
1
1
1
1
1
1
1
1
1
1
1
1
1
1
1
1
1
1
1
1
1
1
1
1
1
1
1
1
1
1
1
1
1
1
1
1
1
1
1
1
1
1
1
1
1
1
1
1
1
1
1
1
1
1
1
1
1
1
1
1
1
1
1
1
1
1
1
1
1
1
1
1
1
1
1
1
1
1
1
1
1
1
1
1
1
1
1
1
1
1
1
1
1
1
1
1
1
1
1
1
1
1
1
1
1
1
1
1
1
1
1
1
1
1
1
1
1
1
1
1
1
1
1
1
1
1
1
1
1
1
1
1
1
1
1
1
1
1
1
1
1
1
1
1
1
1
1
1
1
1
1
1
1
1
1
1
1
1
1
1
1
1
1
1
1
1
1
1
1
1
1
1
1
1
1
1
1
1
1
1
1
1
1
1
1
1
1
1
1
1
1
1
1
1
1
1
1
1
1
1
1
1
1
1
1
1
1
1
1
1
1
1
1
1
1
1
1
1
1
1
1
1
1
1
1
1
1
1
1
1
1
1
1
1
1
1
1
1
1
1
1
1
1
1
1
1
1
1
1
1
1
1
1
1
1
1
1
1
1
1
1
1
1
1
1
1
1
1
1
1
1
1
1
1
1
1
1
1
1
1
1
1
1
1
1
1
1
1
1
1
1
1
1
1
1
1
1
1
1
1
1
1
1
1
1
1
1
1
1
1
1
1
1
1
1
1
1
1
1
1
1
1
1
1
1
1
1
1
1
1
1
1
1
1
1
1
1
1
1
1
1
1
1
1
1
1
1
1
1
1
1
1
1
1
1
1
1
1
1
1
1
1
1
1
1
1
1
1
1
1
1
1
1
1
1
1
1
1
1
1
1
1
1
1
1
1
1
1
1
1
1
1
1
1
1
1
1
1
1
1
1
1
1
1
1
1
1
1
1
1
1
1
1
1
1
1
1
1
1
1
1
1
1
1
1
1
1
1
1
1
1
1
1
1
1
1
1
1
1
1
1
1
1
1
1
1
1
1
1
1
1
1
1
1
1
1
1
1
1
1
1
1
1
1
1
1
1
1
1
1
1
1
1
1
1
1
1
1
1
1
1
1
1
1
1
1
1
1
1
1
1
1
1
1
1
1
1
1
1
1
1
1
1
1
1
1
1
1
1
1
1
1
1
1
1
1
1
1
1
1
1
1
1
1
1
1
1
1
1
1
1
1
1
1
1
1
1
1
1
1
1
1
1
1
1
1
1
1
1
1
1
1
1
1
1
1
1
1
1
1
1
1
1
1
1
1
1
1
1
1
1
1
1
1
1
1
1
1
1
1
1
1
1
1
1
1
1
1
1
1
1
1
1
1
1
1
1
1
1
1
1
1
1
1
1
1
1
1
1
1
1
1
1
1
1
1
1
1
1
1
1
1
1
1
1
1
1
1
1
1
1
1
1
1
1
1
1
1
1
1
1
1
1
1
1
1
1
1
1
1
1
1
1
1
1
1
1
1
1
1
1
1
1
1
1
1
1
1
1
1
1
1
1
1
1
1
1
1
1
1
1
1
1
1
1
1
1
1
1
1
1
1
1
1
1
1
1
1
1
1
1
1
1
1
1
1
1
1
1
1
1
1
1
1
1
1
1
1
1
1
1
1
1
1
1
1
1
1
1
1
1
1
1
1
1
1
1
1
1
1
1
1
1
1
1
1
1
1
1
1
1
1
1
1
1
1
1
1
1
1
1
1
1
1
1
1
1
1
1
1
1
1
1
1
1
1
1
1
1
1
1
1
1
1
1
1
1
1
1
1
1
1
1
1
1
1
1
1
1
1
1
1
1
1
1
1
1
1
1
1
1
1
1
1
1
1
1
1
1
1
1
1
1
1
1
1
1
1
1
1
1
1
1
1
1
1
1
1
1
1
1
1
1
1
1
1
1
1
1
1
1
1
1
1
1
1
1
1
1
1
1
1
1
1
1
1
1
1
1
1
1
1
1
1
1
1
1
1
1
1
1
1
1
1
1
1
1
1
1
1
1
1
1
1
1
1
1
1
1
1
1
1
1
1
1
1
1
1
1
1
1
1
1
1
1
1
1
1
1
1
1
1
1
1
1
1
1
1
1
1
1
1
1
1
1
1
1
1
1
1
1
1
1
1
1
1
1
1
1
1
1
1
1
1
1
1
1
1
1
1
1
1
1
1
1
1
1
1
1
1
1
1
1
1
1
1
1
1
1
1
1
1
1
1
1
1
1
1
1
1
1
1
1
1
1
1
1
1
1
1
1
1
1
1
1
1
1
1
1
1
1
1
1
1
1
1
1
1
1
1
1
1
1
1
1
1
1
1
1
1
1
1
1
1
1
1
1
1
1
1
1
1
1
1
1
1
1
1
1
1
1
1
1
1
1
1
1
1
1
1
1
1
1
1
1
1
1
1
1
1
1
1
1
1
1
1
1
1
1
1
1
1
1
1
1
1
1
1
1
1
1
1
1
1
1
1
1
1
1
1
1
1
1
1
1
1
1
1

SCALARS density double 1
LOOKUP_TABLE default
0.996225
0.996311
0.996448
0.996453
0.996567
0.996539
0.996626
0.996667
0.996718
0.996795
0.996834
0.99688
0.996924
0.996999
0.997009
0.997037
0.997132
0.997218
0.997293
0.99746
0.997724
0.997952
0.998253
0.998661
0.999087
0.99945
0.999899
1.00035
1.0007
1.001
1.00134
1.00158
1.00172
1.00188
1.00203
1.0021
1.00214
1.00225
1.0023
1.00233
1.00237
1.00245
1.00247
1.00249
1.00256
1.00253
1.00259
1.00258
1.00266
1.00267
0.996372
0.996387
0.996505
0.996486
0.996578
0.996549
0.996619
0.996665
0.996632
0.996693
0.996766
0.996773
0.996812
0.996919
0.996999
0.997072
0.997232
0.997407
0.997563
0.997786
0.99805
0.998299
0.998549
0.998863
0.999168
0.999455
0.999781
1.00014
1.00046
1.00078
1.0011
1.00139
1.00161
1.00181
1.002
1.0021
1.00218
1.00228
1.00233
1.00235
1.0024
1.00246
1.00243
1.00247
1.00252
1.00251
1.00255
1.00255
1.00262
1.00262
0.996555
0.996608
0.996678
0.996624
0.996672
0.996683
0.996673
0.996679
0.996701
0.996693
0.996692
0.996769
0.996819
0.996877
0.99704
0.99724
0.997413
0.997651
0.997989
0.998246
0.998463
0.998747
0.998999
0.999122
0.999281
0.999515
0.999697
0.999861
1.00017
1.0005
1.00077
1.00106
1.00143
1.00167
1.00185
1.00204
1.0022
1.00225
1.00229
1.00238
1.00238
1.00238
1.00241
1.00244
1.00242
1.00243
1.00249
1.00244
1.00249
1.00253
0.996886
0.996894
0.996885
0.996866
0.996886
0.996902
0.996868
0.996843
0.996898
0.996888
0.996864
0.996934
0.997018
0.997103
0.997254
0.997501
0.997745
0.998025
0.998347
0.998648
0.998912
0.999126
0.999307
0.999408
0.999492
0.999555
0.999648
0.99976
0.999945
1.00018
1.00046
1.00076
1.00108
1.00137
1.00162
1.00185
1.00201
1.00211
1.00219
1.00227
1.00227
1.00228
1.00233
1.00233
1.00232
1.00233
1.00236
1.00235
1.00235
1.00237
0.997281
0.997154
0.997125
0.997153
0.997118
0.997083
0.997139
0.997148
0.997128
0.997191
0.997265
0.997294
0.997391
0.997572
0.997732
0.997897
0.99819
0.998469
0.998667
0.998928
0.999199
0.999344
0.999424
0.999596
0.999667
0.999653
0.999698
0.999832
0.999869
0.999969
1.00021
1.00046
1.00066
1.00095
1.00128
1.00147
1.00166
1.00187
1.00199
1.00203
1.00211
1.00219
1.00217
1.00219
1.00224
1.00223
1.0022
1.00223
1.00223
1.00215
0.997496
0.997383
0.99737
0.997336
0.997317
0.997277
0.997345
0.997387
0.997399
0.997497
0.997611
0.997756
0.997879
0.998094
0.998298
0.998495
0.99868
0.998869
0.999032
0.99914
0.999254
0.99937
0.999501
0.999586
0.999714
0.999817
0.999897
0.999905
0.999951
0.999981
1.00003
1.00012
1.0003
1.00052
1.00076
1.00103
1.00128
1.00151
1.00167
1.00183
1.00193
1.00201
1.00204
1.00207
1.00212
1.00209
1.0021
1.00208
1.00208
1.00203
0.997641
0.997599
0.99757
0.99747
0.997521
0.997545
0.997509
0.997549
0.997682
0.997763
0.997874
0.998116
0.998355
0.99854
0.998795
0.999053
0.999162
0.999227
0.999326
0.999335
0.999275
0.999343
0.999471
0.999553
0.999695
0.999929
1.00003
1.00004
1.00007
1.00006
0.999939
0.999918
1.00002
1.00013
1.00029
1.00059
1.0009
1.00112
1.00137
1.0016
1.00172
1.00179
1.0019
1.00195
1.00192
1.00194
1.00199
1.00193
1.00191
1.00191
0.997771
0.997725
0.997757
0.997705
0.997745
0.99775
0.997767
0.997802
0.997884
0.998034
0.998172
0.998393
0.998657
0.998939
0.999156
0.999346
0.999508
0.999541
0.999497
0.999453
0.999432
0.999388
0.99941
0.999574
0.99974
0.999878
1.00003
1.00016
1.00014
1.00004
0.999983
0.999894
0.999824
0.999856
1.00004
1.00024
1.00048
1.0008
1.00108
1.00131
1.00147
1.00163
1.00171
1.00175
1.00179
1.0018
1.00182
1.00179
1.00182
1.00179
0.997878
0.997808
0.997888
0.997931
0.997921
0.997888
0.998023
0.998072
0.998115
0.998284
0.998521
0.998684
0.998898
0.999201
0.999379
0.999481
0.999598
0.999668
0.999593
0.999548
0.999579
0.999546
0.999537
0.999632
0.999761
0.99981
0.999949
1.00008
1.00009
1.00005
1.00005
0.99996
0.999817
0.999821
0.999891
0.999991
1.00017
1.0005
1.00076
1.00098
1.00124
1.00144
1.00152
1.00158
1.0017
1.0017
1.00167
1.00171
1.00176
1.0017
0.997926
0.997939
0.997996
0.997964
0.998041
0.998054
0.998133
0.998255
0.998413
0.998577
0.998778
0.999033
0.999219
0.999335
0.999489
0.999568
0.999548
0.999548
0.999633
0.999653
0.99964
0.999738
0.999799
0.999758
0.999726
0.999819
0.99983
0.999847
0.999967
1.0001
1.00007
1.00003
1.00003
0.999925
0.999825
0.999863
1.00002
1.00016
1.00041
1.00073
1.00097
1.00118
1.00136
1.00151
1.00156
1.00159
1.00166
1.00164
1.00165
1.00165
0.997973
0.998052
0.99806
0.997978
0.998115
0.998191
0.998267
0.99839
0.998672
0.998876
0.999048
0.99932
0.999492
0.999539
0.999531
0.999573
0.99951
0.999469
0.999556
0.999675
0.999758
0.999857
0.999952
0.999901
0.99982
0.999767
0.999728
0.999721
0.999863
1
1.00009
1.00016
1.00017
1.00005
0.999904
0.999878
0.999855
0.999934
1.00014
1.00045
1.00069
1.00094
1.00122
1.00137
1.00145
1.00153
1.00163
1.0016
1.00158
1.00163
0.998108
0.998047
0.998117
0.998135
0.998186
0.998255
0.998443
0.998601
0.998786
0.999082
0.999343
0.999468
0.999591
0.999685
0.999613
0.999487
0.999503
0.999526
0.999496
0.999632
0.999848
0.999919
0.999916
0.99998
0.999936
0.999752
0.999701
0.999778
0.99979
0.99987
1.00009
1.00024
1.00018
1.00015
1.00012
0.999923
0.999805
0.999873
1.00001
1.00015
1.00045
1.0008
1.00101
1.0012
1.0014
1.0015
1.00152
1.00157
1.00163
1.00157
0.998182
0.998075
0.998162
0.998223
0.998287
0.998326
0.99857
0.99878
0.998969
0.999215
0.999459
0.999588
0.999597
0.999637
0.999611
0.999522
0.999505
0.999551
0.999628
0.999673
0.999783
0.999871
0.999897
0.999914
0.999906
0.999874
0.99983
0.99981
0.999815
0.999892
1.00002
1.0001
1.00022
1.00026
1.0002
1.00006
0.999947
0.999907
0.999881
1.00002
1.00027
1.00056
1.00082
1.00108
1.00133
1.00143
1.0015
1.00157
1.00163
1.00158
0.998139
0.998187
0.998197
0.99817
0.998359
0.998533
0.998659
0.998915
0.999253
0.99939
0.999484
0.999625
0.999636
0.999497
0.999493
0.999594
0.999549
0.999586
0.999747
0.9998
0.999707
0.999763
0.999854
0.999801
0.999835
0.999981
0.999997
0.999882
0.999916
0.999964
0.999896
0.999984
1.0002
1.00028
1.00022
1.00025
1.00017
0.999938
0.999874
0.999979
1.00009
1.00026
1.00064
1.00096
1.00112
1.00134
1.00154
1.00156
1.00156
1.00164
0.998148
0.998192
0.998226
0.998246
0.998456
0.998681
0.99891
0.999149
0.999422
0.9996
0.999596
0.999584
0.999553
0.999481
0.999427
0.999482
0.999632
0.999697
0.999746
0.999789
0.999783
0.999704
0.999673
0.99977
0.999862
0.999954
1.00003
1.00009
1.00003
0.999929
0.999929
0.999995
1.00008
1.00018
1.00036
1.00037
1.00026
1.00012
1.00001
0.999929
0.999925
1.00013
1.00041
1.00069
1.00098
1.00123
1.00144
1.00153
1.00158
1.00163
0.998206
0.998092
0.998239
0.998474
0.998588
0.99876
0.999179
0.99941
0.999491
0.999618
0.99972
0.999548
0.999416
0.999489
0.999472
0.99945
0.99961
0.999792
0.999731
0.999715
0.999792
0.999709
0.999629
0.999754
0.999898
0.9999
1.00003
1.00016
1.0001
0.99998
1.00003
1.00002
0.999974
1.00017
1.00036
1.00038
1.00033
1.00034
1.00016
0.999925
0.999962
1.00009
1.0002
1.00046
1.00089
1.00112
1.00125
1.00151
1.00166
1.0016
0.998109
0.998143
0.998296
0.998463
0.998728
0.998955
0.999231
0.999471
0.999583
0.999583
0.99956
0.999551
0.999439
0.999398
0.999532
0.999623
0.999612
0.999668
0.999761
0.999721
0.999639
0.99972
0.999792
0.999759
0.999803
0.999961
1.00003
1.00002
1.00011
1.00019
1.00008
1
1.00009
1.00015
1.00019
1.00032
1.00049
1.00041
1.00025
1.00017
1.00005
0.999999
1.00012
1.00039
1.00067
1.00097
1.00127
1.00145
1.00158
1.00167
0.998013
0.998284
0.99839
0.99845
0.998878
0.999231
0.999337
0.999469
0.999699
0.999611
0.999413
0.999474
0.999528
0.999471
0.999531
0.999739
0.999713
0.999603
0.999681
0.99969
0.999628
0.999711
0.999858
0.999837
0.999819
0.999934
0.999962
0.999962
1.00011
1.00021
1.00015
1.00012
1.00017
1.00009
1.0001
1.00034
1.00045
1.00042
1.00042
1.00038
1.00012
0.999949
1.00011
1.00025
1.0004
1.00078
1.00121
1.00135
1.00145
1.00169
0.99817
0.998248
0.998469
0.998763
0.999056
0.999309
0.999583
0.999654
0.999567
0.999552
0.99948
0.999338
0.999403
0.999597
0.999629
0.999616
0.999732
0.999725
0.999542
0.999586
0.999756
0.999762
0.999752
0.999922
0.999979
0.999809
0.999854
1.00005
1.00007
1.00008
1.00025
1.00031
1.00012
1.00009
1.00024
1.00025
1.00033
1.00055
1.00062
1.00042
1.00028
1.00019
1.00001
1.00005
1.00034
1.00062
1.00089
1.00124
1.00148
1.00153
0.99835
0.998276
0.998605
0.999067
0.999244
0.999349
0.999686
0.99972
0.999452
0.999371
0.999444
0.999365
0.999306
0.999567
0.999702
0.999599
0.999624
0.999697
0.999648
0.999589
0.999748
0.999829
0.999815
0.999899
0.999919
0.999891
0.999886
0.999975
0.999999
1.0001
1.00027
1.00025
1.00021
1.00024
1.00024
1.00018
1.00033
1.0006
1.0006
1.00054
1.00054
1.00037
1.00007
1.00004
1.0003
1.00046
1.00066
1.0011
1.00141
1.0014
0.998343
0.998669
0.998887
0.999058
0.999424
0.99966
0.999579
0.999535
0.999556
0.99938
0.99928
0.99948
0.999592
0.999509
0.999614
0.999745
0.999581
0.999547
0.99973
0.999786
0.99967
0.999811
0.999979
0.999823
0.999809
0.999987
1.00001
0.999839
0.99999
1.00019
1.00012
1.00018
1.00037
1.00034
1.00015
1.00025
1.00039
1.00034
1.0005
1.00072
1.0006
1.00036
1.00031
1.00021
1.00006
1.00029
1.00068
1.00086
1.00105
1.0014
0.998568
0.998927
0.999096
0.999187
0.999545
0.999747
0.999578
0.999397
0.999487
0.999465
0.999334
0.999479
0.999686
0.999635
0.999525
0.999573
0.999623
0.999532
0.99963
0.999794
0.999831
0.999797
0.999822
0.999884
0.999891
0.999926
0.999945
1.00001
1.00003
1.00003
1.0001
1.00028
1.00038
1.00031
1.00036
1.00039
1.00029
1.00031
1.00054
1.00069
1.0006
1.00055
1.0005
1.00026
1.00008
1.00022
1.00052
1.0007
1.00088
1.00117
0.999024
0.998895
0.999187
0.999649
0.999605
0.999489
0.999647
0.999532
0.999217
0.999338
0.999598
0.999491
0.999481
0.999721
0.999611
0.999386
0.999538
0.999739
0.999611
0.999693
0.999955
0.999879
0.99971
0.999893
1.00001
0.99985
0.999934
1.00014
1.00002
0.99991
1.00016
1.00029
1.00019
1.00038
1.00055
1.00036
1.00024
1.00048
1.00054
1.00048
1.00075
1.00087
1.00049
1.00029
1.00036
1.00022
1.00014
1.0006
1.00092
1.00081
0.999144
0.999148
0.999403
0.999696
0.999663
0.999522
0.999498
0.999447
0.999286
0.999302
0.99951
0.999624
0.99953
0.99955
0.999637
0.99957
0.999536
0.999664
0.999823
0.999778
0.999764
0.999859
0.999902
0.999828
0.99986
1.00001
1.00006
0.999987
1.00002
1.00013
1.0001
1.00006
1.00026
1.00043
1.0004
1.00036
1.00045
1.00044
1.00038
1.00058
1.0008
1.00082
1.00069
1.00056
1.00038
1.00021
1.00019
1.0004
1.00063
1.00074
0.999192
0.999716
0.999724
0.999451
0.999704
0.999789
0.999297
0.999146
0.999529
0.999493
0.999307
0.999587
0.999763
0.999443
0.999406
0.999723
0.999677
0.999543
0.999794
0.999876
0.999672
0.999738
0.999946
0.999868
0.999801
1.00007
1.00006
0.999949
1.00012
1.00022
1.00005
1.00009
1.00038
1.00032
1.00029
1.00059
1.00058
1.00028
1.00043
1.00074
1.00065
1.00065
1.001
1.00084
1.00028
1.00025
1.00042
1.00018
1.00015
1.00064
0.999677
0.999768
0.999731
0.999743
0.999613
0.999459
0.999354
0.999276
0.999328
0.99954
0.999559
0.999479
0.999524
0.999563
0.999444
0.999488
0.999734
0.99979
0.999636
0.99975
0.999882
0.999776
0.999746
0.999939
1.00007
0.999873
0.999954
1.00016
1.00013
1
1.00014
1.00031
1.00016
1.00021
1.00052
1.00058
1.00046
1.00053
1.00059
1.0005
1.0006
1.00089
1.00091
1.00081
1.00071
1.00044
1.00016
1.0002
1.00019
1.00017
1.0002
0.999651
0.999767
1.00007
0.99953
0.999051
0.999432
0.999559
0.999225
0.999388
0.99981
0.999542
0.999239
0.999526
0.999678
0.999447
0.999611
0.999878
0.999783
0.999644
0.999859
0.999888
0.999774
0.99995
1.00002
0.999946
0.999959
1.00014
1.00005
1.00005
1.00028
1.00019
1.00009
1.00033
1.00052
1.00036
1.00051
1.00081
1.00058
1.00034
1.00074
1.00096
1.00072
1.00082
1.00108
1.00061
1.00001
1.00016
1.00026
0.999784
1.00008
1.00027
1.00008
0.999616
0.999507
0.999453
0.999221
0.999306
0.999612
0.999507
0.999375
0.99956
0.999526
0.999315
0.999525
0.999804
0.999624
0.999576
0.999813
0.999844
0.999597
0.999796
1.00004
0.999841
0.999822
1.00009
1.00014
0.999891
1.00009
1.00036
1.00015
1.00011
1.00037
1.00038
1.00018
1.00047
1.00076
1.00057
1.00055
1.00079
1.00068
1.00058
1.00097
1.0011
1.00077
1.00067
1.00055
0.999971
0.999682
0.999946
1.00029
1.00071
1.00019
0.999355
0.999467
0.999665
0.999185
0.999106
0.999685
0.999648
0.999169
0.999343
0.999672
0.99948
0.999392
0.999771
0.999829
0.999515
0.999654
0.999814
0.999763
0.999748
0.999932
0.999953
0.999893
1.00004
0.999996
1.00002
1.0002
1.00021
1.00015
1.0003
1.00045
1.00018
1.00023
1.00063
1.00061
1.00046
1.00077
1.00094
1.00057
1.00057
1.00111
1.00112
1.00073
1.0008
1.00076
1.00002
0.999453
0.999699
1.00112
1.00031
1.00002
1.00011
0.999496
0.99905
0.999549
0.999641
0.999218
0.999378
0.999689
0.999297
0.999213
0.999715
0.99976
0.999451
0.999663
0.999899
0.999576
0.99958
0.999922
0.999918
0.99973
0.999968
1.00013
0.999852
0.999936
1.00024
1.00013
1.00001
1.00033
1.00044
1.00012
1.00029
1.00059
1.00035
1.00035
1.00087
1.00087
1.00048
1.00079
1.00105
1.00066
1.00078
1.00135
1.0009
1.00016
1.00022
0.999963
0.999061
1.00121
1.00041
1.00019
1.00017
0.99949
0.999084
0.999506
0.999703
0.999257
0.999183
0.999557
0.999468
0.999163
0.999482
0.999804
0.999615
0.999489
0.999742
0.999816
0.999616
0.999698
0.999873
0.999915
0.999864
0.999916
1.00004
1.00011
1.00008
1.00009
1.00027
1.00036
1.00018
1.00026
1.00054
1.00046
1.00027
1.00058
1.0009
1.00068
1.00065
1.001
1.00096
1.0007
1.00092
1.00125
1.00098
1.00038
1.00013
0.999836
0.999234
1.00074
1.00133
1.00063
0.99931
0.999603
0.999964
0.999203
0.999057
0.999803
0.999521
0.998891
0.999401
0.999836
0.999316
0.999359
0.999903
0.99977
0.999433
0.99979
0.999954
0.999587
0.999702
1.00003
0.999877
0.999788
1.00016
1.00016
0.999938
1.00022
1.00043
1.0001
1.00017
1.00059
1.00037
1.00016
1.00066
1.00079
1.0003
1.00068
1.00129
1.00076
1.00047
1.00126
1.00124
1.00052
1.00088
1.00122
0.999924
0.999112
0.999684
1.00132
1.00122
1.00041
0.999788
0.999667
0.999679
0.999445
0.999226
0.9994
0.999463
0.99921
0.999211
0.999582
0.999655
0.999393
0.999515
0.99978
0.999719
0.999575
0.999755
0.999894
0.999756
0.999723
0.9999
1.00005
0.999971
1.00002
1.00023
1.00027
1.00011
1.00021
1.00048
1.00038
1.00027
1.00054
1.0007
1.00044
1.00053
1.00094
1.00094
1.00082
1.00097
1.00106
1.00094
1.00096
1.00094
1.0007
1.00029
0.999531
0.999142
1.00208
1.00032
1.00024
1.00086
0.999738
0.99883
0.999795
0.999907
0.998737
0.998929
0.999854
0.999415
0.998949
0.999706
0.999904
0.99922
0.999414
0.999952
0.999736
0.999504
0.999922
0.99996
0.999659
0.999893
1.00008
0.999946
1.00004
1.00032
1.0001
1.00005
1.0005
1.0004
1.00011
1.00057
1.00087
1.00026
1.00035
1.00114
1.00082
1.00035
1.00124
1.00157
1.00052
1.00064
1.00167
1.00098
0.99994
1.00047
1.00044
0.998765
1.00118
1.00119
1.00082
1.00006
0.999832
0.999749
0.999359
0.999256
0.999385
0.999096
0.999149
0.999554
0.999568
0.999346
0.99957
0.999752
0.99947
0.999488
0.999802
0.999865
0.999662
0.999815
0.999997
0.999818
0.999827
1.00011
1.00023
1.00002
1.00013
1.0004
1.00026
1.00021
1.00052
1.00064
1.00036
1.00051
1.00084
1.00062
1.00058
1.00108
1.00116
1.00085
1.00117
1.0012
1.00073
1.00088
1.00097
1.00005
0.999574
0.999876
1.00082
1.00211
1.0011
0.999281
0.999977
1.00058
0.999045
0.998538
0.999727
0.999585
0.99859
0.999263
1.00005
0.999387
0.999067
0.999817
0.999817
0.999232
0.999552
0.999965
0.999786
0.999675
0.999924
0.999919
0.999846
1.00011
1.00009
1.00007
1.00033
1.00031
1.0001
1.00043
1.00082
1.00033
1.00024
1.00102
1.00088
1.00018
1.00083
1.00159
1.00074
1.00056
1.00176
1.00148
1.00019
1.00077
1.00154
1.0001
0.999078
1.0001
1.00228
1.00086
1.00051
1.00102
1.00005
0.999077
0.999673
0.999527
0.998676
0.999063
0.999721
0.999204
0.999108
0.999742
0.999731
0.999251
0.999541
0.999855
0.999496
0.999553
0.999979
0.999947
0.999691
0.999942
1.00016
0.999862
0.999985
1.00037
1.00022
1.00003
1.00041
1.00061
1.00025
1.00046
1.0009
1.00054
1.00039
1.00106
1.00109
1.00047
1.00109
1.0017
1.00086
1.00074
1.00169
1.0009
0.999881
1.00074
1.0006
0.998901
1.00222
1.00032
1.00069
1.00155
0.999982
0.998671
0.999636
0.999865
0.998533
0.99867
0.999861
0.999548
0.998822
0.999546
0.999961
0.999355
0.999249
0.999775
0.999737
0.999457
0.999778
0.999947
0.999844
0.999935
0.999993
0.999959
1.00008
1.00025
1.00011
1.00022
1.0006
1.00035
1.00023
1.00082
1.00087
1.00025
1.00059
1.0014
1.0008
1.00035
1.00147
1.00176
1.00064
1.00089
1.00184
1.00101
0.999857
1.00053
1.00097
0.999575
1.00055
1.00254
1.00171
0.999311
1.00013
1.00073
0.998731
0.998247
0.999812
0.999459
0.99843
0.999374
1.00007
0.999162
0.999099
0.999876
0.999683
0.999168
0.999625
0.999971
0.999551
0.99965
1.00009
0.999972
0.999842
1.00011
1.00015
0.999968
1.00031
1.00055
1.00016
1.00032
1.00087
1.00057
1.00024
1.00099
1.00119
1.00027
1.00073
1.00185
1.00094
1.00035
1.00203
1.00194
0.999964
1.00078
1.00209
0.99983
0.999001
1.00127
1.0015
1.00242
1.00123
0.999862
1.00013
1.00027
0.998958
0.998362
0.999334
0.999455
0.998805
0.99911
0.99983
0.999535
0.999108
0.999551
0.99972
0.999472
0.999527
0.999775
0.999782
0.99972
0.999885
1
1.00001
1.00005
1.00001
1.00014
1.00036
1.00028
1.00023
1.00053
1.00068
1.0004
1.00054
1.0011
1.0008
1.00044
1.00114
1.00151
1.00087
1.00093
1.00187
1.00155
1.00071
1.00092
1.0012
1.00067
0.999791
1.00014
1.00352
0.999778
1.00044
1.00268
1
0.997704
0.999858
1.00018
0.997801
0.998458
1.00031
0.99942
0.998492
0.999703
1.00005
0.998937
0.999169
1.00002
0.999665
0.999286
0.999783
0.999994
0.999714
0.999945
1.00019
0.999913
1.00005
1.00036
1.00011
1.00016
1.00074
1.00055
1.00005
1.00081
1.00132
1.00028
1.00038
1.00179
1.00118
0.99997
1.00159
1.00259
1.00032
1.00046
1.00306
1.00126
0.998774
1.00134
1.00237
0.998753
1.00135
1.00125
1.00156
1.00083
0.999956
0.99926
0.998969
0.999047
0.998977
0.998797
0.999239
0.999463
0.999353
0.999327
0.999467
0.999466
0.99934
0.999521
0.999681
0.999629
0.999636
0.999781
0.999957
0.99998
0.999959
1.00007
1.00015
1.00012
1.00018
1.00042
1.00053
1.00037
1.00049
1.00082
1.00073
1.00067
1.00097
1.00109
1.00089
1.00107
1.00153
1.00133
1.00134
1.00161
1.00133
1.0012
1.00118
1.00025
1.00062
1.00157
0.999911
1.00439
1.00223
0.997774
1.00005
1.00162
0.997948
0.997224
1.00017
0.999869
0.997852
0.999187
1.00047
0.999172
0.998679
0.999804
0.999789
0.999024
0.999509
1.00004
0.999621
0.999603
1.00005
0.999984
0.999903
1.00022
1.00015
0.999933
1.00038
1.00055
1.00009
1.00046
1.00111
1.00044
1.00017
1.00145
1.0014
0.99995
1.00095
1.00265
1.0008
0.999928
1.0029
1.00281
0.999275
1.00094
1.00379
1.00004
0.998254
1.00258
1.00347
1.00075
1.00032
1.00166
0.999843
0.998271
0.999193
0.999219
0.998374
0.998821
0.999757
0.999313
0.99898
0.99948
0.999568
0.999197
0.999244
0.999628
0.999559
0.999477
0.99977
0.999907
0.999815
0.999913
1.00009
1.00008
1.00009
1.00023
1.00024
1.0003
1.00057
1.0006
1.00046
1.00074
1.00098
1.00076
1.00075
1.00134
1.00129
1.00075
1.0015
1.00207
1.00118
1.00114
1.00262
1.00153
0.999699
1.00209
1.00231
0.998854
1.00396
0.99828
1.00025
1.00357
0.999347
0.996385
0.999724
1.00035
0.997446
0.998249
1.00055
0.999635
0.998393
0.999549
0.99997
0.998904
0.999023
0.999839
0.999608
0.999327
0.999859
1.00005
0.999755
0.999957
1.00016
0.999952
1.00012
1.00039
1.00009
1.0002
1.00083
1.00059
1.0001
1.00095
1.0014
1.00027
1.0005
1.00211
1.00124
0.999848
1.00199
1.00322
1.0002
1.00038
1.00423
1.00219
0.998338
1.0019
1.00414
0.999609
0.998303
1.00405
1.00233
0.997196
0.999419
1.00101
0.997769
0.99717
0.999856
0.999767
0.998338
0.999209
1.00022
0.999166
0.998636
0.999537
0.999625
0.999108
0.999417
0.9999
0.999727
0.99966
0.999999
1.00002
0.999945
1.00014
1.00014
1.00007
1.00039
1.0005
1.00028
1.00056
1.00102
1.00061
1.0004
1.00137
1.00137
1.00032
1.00114
1.00242
1.00111
1.00038
1.00303
1.00293
0.999678
1.00147
1.00484
0.999864
0.998455
1.00546
1.00066
1.0049
1.00101
0.996527
0.999577
1.0007
0.997364
0.997298
0.999963
0.999703
0.998424
0.99946
1.00018
0.999026
0.998732
0.999507
0.999433
0.999041
0.999547
0.999941
0.999696
0.999801
1.00013
0.999955
0.999889
1.0002
1.00016
0.999999
1.00044
1.00062
1.0002
1.00048
1.00114
1.00065
1.00028
1.00133
1.00153
1.00028
1.00097
1.00255
1.00126
1.00025
1.00295
1.00329
0.999873
1.00108
1.00494
1.00142
0.998719
1.00205
1.00587
0.993591
0.997606
1.00448
0.998792
0.994882
0.999119
1.00059
0.997502
0.998215
1.00085
0.999881
0.998271
0.999344
0.999819
0.998735
0.998753
0.999811
0.999722
0.999356
0.999851
1.0001
0.999822
0.999941
1.00012
0.999957
1.00012
1.00041
1.00017
1.00028
1.0009
1.00062
1.00017
1.0011
1.00146
1.00027
1.00057
1.00236
1.00131
0.999772
1.0024
1.0037
0.999884
1.00045
1.00567
1.00243
0.996616
1.00443
1.00831
0.995622
0.998945
0.998145
1.00029
1.00084
0.99751
0.997463
0.998871
0.998662
0.998352
0.999556
1.00014
0.999333
0.999132
0.999457
0.999029
0.998722
0.999176
0.999599
0.999463
0.999698
1.00007
0.999982
0.9998
1.00007
1.00012
0.999886
1.00004
1.00044
1.0003
1.00024
1.00068
1.00082
1.00039
1.00072
1.00124
1.00088
1.00053
1.00152
1.00168
1.00075
1.00131
1.00288
1.00174
1.0009
1.00281
1.00354
0.999956
1.00169
1.00508
1.00543
0.997356
1.01233
1.00125
0.992761
0.998947
1.00146
0.996324
0.996205
1.00091
1.00043
0.998347
0.999741
1.00076
0.998806
0.998095
0.99933
0.9993
0.99873
0.999556
1.00025
0.999843
0.999828
1.00018
0.999907
0.999765
1.00019
1.00009
0.999945
1.0006
1.00072
1.00002
1.00058
1.00148
1.00047
0.999986
1.00189
1.00172
0.999555
1.00109
1.00373
1.00057
0.999253
1.00477
1.00444
0.996992
1.00212
1.00976
0.998209
0.993165
1.02014

VECTORS velocity double
-1.10119e-005 -1.45171e-005 0
-5.9025e-006 5.32189e-007 0
-4.42007e-005 -5.93682e-006 0
-5.83144e-005 8.22701e-006 0
-6.62988e-005 1.45032e-005 0
-0.000108414 4.5851e-005 0
-0.000133071 2.3822e-005 0
-0.000145779 3.85634e-005 0
-0.000158933 3.45669e-005 0
-0.000187026 4.45024e-005 0
-0.000208147 2.28684e-005 0
-0.000218091 1.91084e-005 0
-0.000238869 1.02736e-005 0
-0.000266599 -4.28047e-006 0
-0.000285574 -2.82496e-005 0
-0.000311321 -3.64754e-005 0
-0.000350285 -5.58817e-005 0
-0.00039047 -6.94877e-005 0
-0.000434924 -7.96282e-005 0
-0.000485475 -7.64418e-005 0
-0.000540636 -7.49271e-005 0
-0.000587573 -5.55562e-005 0
-0.00062781 -3.07724e-005 0
-0.000655182 4.54083e-006 0
-0.000664198 3.54831e-005 0
-0.000653848 7.36668e-005 0
-0.000624848 9.65197e-005 0
-0.000581637 0.000114546 0
-0.000526989 0.000117594 0
-0.000469492 0.000113106 0
-0.00040805 9.26349e-005 0
-0.000354594 7.46001e-005 0
-0.000308534 4.9773e-005 0
-0.000269299 2.65675e-005 0
-0.000234087 2.75531e-006 0
-0.000210037 -7.33361e-006 0
-0.000194363 -2.64509e-005 0
-0.000170683 -3.71883e-005 0
-0.000153704 -4.14778e-005 0
-0.000145075 -4.00015e-005 0
-0.00013046 -5.51224e-005 0
-0.000107882 -4.61686e-005 0
-9.66058e-005 -4.72961e-005 0
-8.92954e-005 -3.45124e-005 0
-6.9273e-005 -5.33896e-005 0
-4.16587e-005 -2.95926e-005 0
-3.1699e-005 -3.23734e-005 0
-2.38604e-005 -1.86791e-005 0
5.95588e-006 -3.46593e-005 0
8.3952e-006 -7.66877e-006 0
1.00626e-005 -4.01364e-005 0
3.67286e-005 1.38566e-005 0
-2.94061e-005 3.58761e-005 0
-0.000102692 2.48929e-005 0
-0.000122576 5.232e-005 0
-0.000184357 0.000120155 0
-0.000230474 7.39066e-005 0
-0.000260693 0.000106476 0
-0.000315746 0.000109005 0
-0.000354005 0.000124021 0
-0.000384809 8.03223e-005 0
-0.000423507 8.49823e-005 0
-0.000473582 6.45789e-005 0
-0.000509652 2.93563e-005 0
-0.000554578 -1.8708e-005 0
-0.000611872 -3.88056e-005 0
-0.000674881 -8.27351e-005 0
-0.000744641 -0.000123039 0
-0.000820603 -0.000144359 0
-0.000903419 -0.000148148 0
-0.000979636 -0.000141918 0
-0.0010519 -0.000109642 0
-0.00110868 -4.96593e-005 0
-0.00114383 1.81141e-005 0
-0.00115244 9.45357e-005 0
-0.00113628 0.000169904 0
-0.0010939 0.000226084 0
-0.00102484 0.000257033 0
-0.00094415 0.000270237 0
-0.00085235 0.000247062 0
-0.000758791 0.00020322 0
-0.000665296 0.000153563 0
-0.000586265 9.74047e-005 0
-0.000515462 3.39712e-005 0
-0.000452897 -2.17789e-005 0
-0.000402657 -4.66393e-005 0
-0.000362834 -9.12962e-005 0
-0.000332935 -0.000115686 0
-0.000294267 -0.000132227 0
-0.000264293 -0.000119467 0
-0.000241426 -0.00015281 0
-0.000214623 -0.00013768 0
-0.00017489 -0.000135437 0
-0.000151125 -0.000110161 0
-0.000119023 -0.000144669 0
-7.7898e-005 -0.00010271 0
-5.84616e-005 -9.01776e-005 0
-1.40578e-005 -9.17717e-005 0
2.88812e-005 -9.96442e-005 0
1.82437e-005 -2.10585e-005 0
5.78538e-006 -7.30385e-005 0
3.93808e-005 -6.5945e-006 0
3.87112e-005 0.000117309 0
-4.22045e-005 8.03104e-005 0
-0.000131422 8.57242e-005 0
-0.000152623 0.000132869 0
-0.000180027 0.000123273 0
-0.000258008 0.000150755 0
-0.000302821 0.000162751 0
-0.00032805 0.000162082 0
-0.000379118 0.000167832 0
-0.000444429 0.00016173 0
-0.00047858 0.000146363 0
-0.000514986 0.000117132 0
-0.000583533 8.26728e-005 0
-0.000638846 3.23212e-005 0
-0.000682757 -2.1019e-005 0
-0.000739761 -7.15081e-005 0
-0.00080206 -0.000122666 0
-0.000844371 -0.000149694 0
-0.000882981 -0.00014706 0
-0.000918105 -0.000121206 0
-0.000942025 -6.63407e-005 0
-0.000953321 2.40291e-005 0
-0.000960325 0.000123274 0
-0.000955981 0.000212758 0
-0.000940932 0.000288587 0
-0.000919666 0.000341895 0
-0.000879936 0.000347887 0
-0.000825877 0.000316156 0
-0.000767504 0.000262345 0
-0.000703945 0.000189332 0
-0.000622565 9.7678e-005 0