# vtk DataFile Version 4.0
SiwiRVisFile
ASCII
DATASET STRUCTURED_POINTS
DIMENSIONS 5 5 1
ORIGIN 0 0 0
SPACING 1 1 1
POINT_DATA 25

SCALARS flags double 1
LOOKUP_TABLE default
1
1
1
1
1
1
1
1
1
1
1
1
1
1
1
1
1
1
1
1
1
1
1
1
1

SCALARS density double 1
LOOKUP_TABLE default
0.984512
1.03852
0.999958
0.961547
1.01671
0.987633
1.03299
1.00041
0.968016
1.01117
1.0223
0.947126
0.998951
1.05218
0.976885
1.00267
0.984578
0.997913
1.0132
0.997801
0.974243
1.06068
0.998681
0.939102
1.03223

VECTORS velocity double
-0.00135545 0.00165103 0
-0.00267638 -0.00190869 0
0.00156486 -0.000451311 0
-0.00147745 0.00317882 0
-0.00144314 -0.00116154 0
0.000168612 0.00463924 0
-0.00874411 0.000434882 0
-0.0155579 -0.000898801 0
-0.00914002 -0.00206266 0
0.00124384 -0.00406964 0
-0.00109959 0.00642567 0
-0.0142367 0.0202763 0
-0.0217499 -0.000241543 0
-0.0143487 -0.0207531 0
-0.0018367 -0.00433987 0
-0.00720179 0.017651 0
-0.00754838 0.0228612 0
-0.00182679 -0.000831097 0
-0.010266 -0.0212669 0
-0.0049659 -0.0183554 0
0.022348 0.0127946 0
0.046747 0.0029008 0
0.053291 1.61416e-005 0
0.0459224 -0.00424251 0
0.0293191 -0.016043 0
